title = "dataset water"
variables = "x", "y", "z", "vx", "vy", "vz"
zone t = "velocities, solution time =  1.900E+01 days        " i =   99, j =   99, k =    1,  f=point
  0.5050505E-02  0.0000000E+00  0.5050505E-02  0.5922970E-10  0.0000000E+00 -0.1960789E-04
  0.1515152E-01  0.0000000E+00  0.5050505E-02  0.1776639E-09  0.0000000E+00 -0.1960766E-04
  0.2525252E-01  0.0000000E+00  0.5050505E-02  0.2960134E-09  0.0000000E+00 -0.1960718E-04
  0.3535353E-01  0.0000000E+00  0.5050505E-02  0.4142167E-09  0.0000000E+00 -0.1960647E-04
  0.4545455E-01  0.0000000E+00  0.5050505E-02  0.5322064E-09  0.0000000E+00 -0.1960552E-04
  0.5555556E-01  0.0000000E+00  0.5050505E-02  0.6499054E-09  0.0000000E+00 -0.1960433E-04
  0.6565657E-01  0.0000000E+00  0.5050505E-02  0.7672248E-09  0.0000000E+00 -0.1960291E-04
  0.7575758E-01  0.0000000E+00  0.5050505E-02  0.8840610E-09  0.0000000E+00 -0.1960126E-04
  0.8585858E-01  0.0000000E+00  0.5050505E-02  0.1000294E-08  0.0000000E+00 -0.1959937E-04
  0.9595960E-01  0.0000000E+00  0.5050505E-02  0.1115783E-08  0.0000000E+00 -0.1959725E-04
  0.1060606E+00  0.0000000E+00  0.5050505E-02  0.1230367E-08  0.0000000E+00 -0.1959490E-04
  0.1161616E+00  0.0000000E+00  0.5050505E-02  0.1343860E-08  0.0000000E+00 -0.1959232E-04
  0.1262626E+00  0.0000000E+00  0.5050505E-02  0.1456052E-08  0.0000000E+00 -0.1958951E-04
  0.1363636E+00  0.0000000E+00  0.5050505E-02  0.1566702E-08  0.0000000E+00 -0.1958648E-04
  0.1464646E+00  0.0000000E+00  0.5050505E-02  0.1675542E-08  0.0000000E+00 -0.1958323E-04
  0.1565657E+00  0.0000000E+00  0.5050505E-02  0.1782273E-08  0.0000000E+00 -0.1957976E-04
  0.1666667E+00  0.0000000E+00  0.5050505E-02  0.1886562E-08  0.0000000E+00 -0.1957609E-04
  0.1767677E+00  0.0000000E+00  0.5050505E-02  0.1988046E-08  0.0000000E+00 -0.1957220E-04
  0.1868687E+00  0.0000000E+00  0.5050505E-02  0.2086327E-08  0.0000000E+00 -0.1956812E-04
  0.1969697E+00  0.0000000E+00  0.5050505E-02  0.2180975E-08  0.0000000E+00 -0.1956384E-04
  0.2070707E+00  0.0000000E+00  0.5050505E-02  0.2271527E-08  0.0000000E+00 -0.1955938E-04
  0.2171717E+00  0.0000000E+00  0.5050505E-02  0.2357488E-08  0.0000000E+00 -0.1955474E-04
  0.2272727E+00  0.0000000E+00  0.5050505E-02  0.2438335E-08  0.0000000E+00 -0.1954993E-04
  0.2373737E+00  0.0000000E+00  0.5050505E-02  0.2513516E-08  0.0000000E+00 -0.1954497E-04
  0.2474747E+00  0.0000000E+00  0.5050505E-02  0.2582455E-08  0.0000000E+00 -0.1953986E-04
  0.2575758E+00  0.0000000E+00  0.5050505E-02  0.2644556E-08  0.0000000E+00 -0.1953462E-04
  0.2676768E+00  0.0000000E+00  0.5050505E-02  0.2699208E-08  0.0000000E+00 -0.1952926E-04
  0.2777778E+00  0.0000000E+00  0.5050505E-02  0.2745789E-08  0.0000000E+00 -0.1952380E-04
  0.2878788E+00  0.0000000E+00  0.5050505E-02  0.2783671E-08  0.0000000E+00 -0.1951826E-04
  0.2979798E+00  0.0000000E+00  0.5050505E-02  0.2812233E-08  0.0000000E+00 -0.1951265E-04
  0.3080808E+00  0.0000000E+00  0.5050505E-02  0.2830863E-08  0.0000000E+00 -0.1950700E-04
  0.3181818E+00  0.0000000E+00  0.5050505E-02  0.2838969E-08  0.0000000E+00 -0.1950131E-04
  0.3282828E+00  0.0000000E+00  0.5050505E-02  0.2835989E-08  0.0000000E+00 -0.1949562E-04
  0.3383838E+00  0.0000000E+00  0.5050505E-02  0.2821401E-08  0.0000000E+00 -0.1948995E-04
  0.3484848E+00  0.0000000E+00  0.5050505E-02  0.2794733E-08  0.0000000E+00 -0.1948432E-04
  0.3585859E+00  0.0000000E+00  0.5050505E-02  0.2755574E-08  0.0000000E+00 -0.1947876E-04
  0.3686869E+00  0.0000000E+00  0.5050505E-02  0.2703586E-08  0.0000000E+00 -0.1947329E-04
  0.3787879E+00  0.0000000E+00  0.5050505E-02  0.2638514E-08  0.0000000E+00 -0.1946793E-04
  0.3888889E+00  0.0000000E+00  0.5050505E-02  0.2560197E-08  0.0000000E+00 -0.1946272E-04
  0.3989899E+00  0.0000000E+00  0.5050505E-02  0.2468580E-08  0.0000000E+00 -0.1945768E-04
  0.4090909E+00  0.0000000E+00  0.5050505E-02  0.2363720E-08  0.0000000E+00 -0.1945284E-04
  0.4191919E+00  0.0000000E+00  0.5050505E-02  0.2245794E-08  0.0000000E+00 -0.1944822E-04
  0.4292929E+00  0.0000000E+00  0.5050505E-02  0.2115111E-08  0.0000000E+00 -0.1944384E-04
  0.4393939E+00  0.0000000E+00  0.5050505E-02  0.1972108E-08  0.0000000E+00 -0.1943975E-04
  0.4494950E+00  0.0000000E+00  0.5050505E-02  0.1817360E-08  0.0000000E+00 -0.1943595E-04
  0.4595959E+00  0.0000000E+00  0.5050505E-02  0.1651576E-08  0.0000000E+00 -0.1943247E-04
  0.4696970E+00  0.0000000E+00  0.5050505E-02  0.1475600E-08  0.0000000E+00 -0.1942934E-04
  0.4797980E+00  0.0000000E+00  0.5050505E-02  0.1290400E-08  0.0000000E+00 -0.1942657E-04
  0.4898990E+00  0.0000000E+00  0.5050505E-02  0.1097069E-08  0.0000000E+00 -0.1942417E-04
  0.5000000E+00  0.0000000E+00  0.5050505E-02  0.8968060E-09  0.0000000E+00 -0.1942217E-04
  0.5101010E+00  0.0000000E+00  0.5050505E-02  0.6909107E-09  0.0000000E+00 -0.1942058E-04
  0.5202020E+00  0.0000000E+00  0.5050505E-02  0.4807631E-09  0.0000000E+00 -0.1941941E-04
  0.5303030E+00  0.0000000E+00  0.5050505E-02  0.2678089E-09  0.0000000E+00 -0.1941866E-04
  0.5404040E+00  0.0000000E+00  0.5050505E-02  0.5353960E-10  0.0000000E+00 -0.1941833E-04
  0.5505050E+00  0.0000000E+00  0.5050505E-02 -0.1605267E-09  0.0000000E+00 -0.1941844E-04
  0.5606061E+00  0.0000000E+00  0.5050505E-02 -0.3728666E-09  0.0000000E+00 -0.1941898E-04
  0.5707071E+00  0.0000000E+00  0.5050505E-02 -0.5819723E-09  0.0000000E+00 -0.1941993E-04
  0.5808081E+00  0.0000000E+00  0.5050505E-02 -0.7863723E-09  0.0000000E+00 -0.1942131E-04
  0.5909091E+00  0.0000000E+00  0.5050505E-02 -0.9846507E-09  0.0000000E+00 -0.1942308E-04
  0.6010101E+00  0.0000000E+00  0.5050505E-02 -0.1175466E-08  0.0000000E+00 -0.1942525E-04
  0.6111111E+00  0.0000000E+00  0.5050505E-02 -0.1357569E-08  0.0000000E+00 -0.1942779E-04
  0.6212121E+00  0.0000000E+00  0.5050505E-02 -0.1529813E-08  0.0000000E+00 -0.1943068E-04
  0.6313131E+00  0.0000000E+00  0.5050505E-02 -0.1691173E-08  0.0000000E+00 -0.1943391E-04
  0.6414142E+00  0.0000000E+00  0.5050505E-02 -0.1840746E-08  0.0000000E+00 -0.1943745E-04
  0.6515151E+00  0.0000000E+00  0.5050505E-02 -0.1977767E-08  0.0000000E+00 -0.1944128E-04
  0.6616161E+00  0.0000000E+00  0.5050505E-02 -0.2101605E-08  0.0000000E+00 -0.1944537E-04
  0.6717172E+00  0.0000000E+00  0.5050505E-02 -0.2211770E-08  0.0000000E+00 -0.1944969E-04
  0.6818182E+00  0.0000000E+00  0.5050505E-02 -0.2307905E-08  0.0000000E+00 -0.1945422E-04
  0.6919192E+00  0.0000000E+00  0.5050505E-02 -0.2389791E-08  0.0000000E+00 -0.1945893E-04
  0.7020202E+00  0.0000000E+00  0.5050505E-02 -0.2457332E-08  0.0000000E+00 -0.1946379E-04
  0.7121212E+00  0.0000000E+00  0.5050505E-02 -0.2510554E-08  0.0000000E+00 -0.1946877E-04
  0.7222222E+00  0.0000000E+00  0.5050505E-02 -0.2549592E-08  0.0000000E+00 -0.1947384E-04
  0.7323232E+00  0.0000000E+00  0.5050505E-02 -0.2574682E-08  0.0000000E+00 -0.1947898E-04
  0.7424242E+00  0.0000000E+00  0.5050505E-02 -0.2586150E-08  0.0000000E+00 -0.1948415E-04
  0.7525253E+00  0.0000000E+00  0.5050505E-02 -0.2584399E-08  0.0000000E+00 -0.1948933E-04
  0.7626263E+00  0.0000000E+00  0.5050505E-02 -0.2569897E-08  0.0000000E+00 -0.1949450E-04
  0.7727273E+00  0.0000000E+00  0.5050505E-02 -0.2543170E-08  0.0000000E+00 -0.1949962E-04
  0.7828283E+00  0.0000000E+00  0.5050505E-02 -0.2504787E-08  0.0000000E+00 -0.1950468E-04
  0.7929293E+00  0.0000000E+00  0.5050505E-02 -0.2455348E-08  0.0000000E+00 -0.1950966E-04
  0.8030303E+00  0.0000000E+00  0.5050505E-02 -0.2395480E-08  0.0000000E+00 -0.1951452E-04
  0.8131313E+00  0.0000000E+00  0.5050505E-02 -0.2325824E-08  0.0000000E+00 -0.1951925E-04
  0.8232324E+00  0.0000000E+00  0.5050505E-02 -0.2247026E-08  0.0000000E+00 -0.1952383E-04
  0.8333333E+00  0.0000000E+00  0.5050505E-02 -0.2159734E-08  0.0000000E+00 -0.1952825E-04
  0.8434343E+00  0.0000000E+00  0.5050505E-02 -0.2064587E-08  0.0000000E+00 -0.1953249E-04
  0.8535354E+00  0.0000000E+00  0.5050505E-02 -0.1962215E-08  0.0000000E+00 -0.1953652E-04
  0.8636364E+00  0.0000000E+00  0.5050505E-02 -0.1853230E-08  0.0000000E+00 -0.1954035E-04
  0.8737374E+00  0.0000000E+00  0.5050505E-02 -0.1738227E-08  0.0000000E+00 -0.1954395E-04
  0.8838384E+00  0.0000000E+00  0.5050505E-02 -0.1617778E-08  0.0000000E+00 -0.1954731E-04
  0.8939394E+00  0.0000000E+00  0.5050505E-02 -0.1492432E-08  0.0000000E+00 -0.1955043E-04
  0.9040404E+00  0.0000000E+00  0.5050505E-02 -0.1362717E-08  0.0000000E+00 -0.1955329E-04
  0.9141414E+00  0.0000000E+00  0.5050505E-02 -0.1229135E-08  0.0000000E+00 -0.1955589E-04
  0.9242424E+00  0.0000000E+00  0.5050505E-02 -0.1092164E-08  0.0000000E+00 -0.1955822E-04
  0.9343435E+00  0.0000000E+00  0.5050505E-02 -0.9522614E-09  0.0000000E+00 -0.1956026E-04
  0.9444444E+00  0.0000000E+00  0.5050505E-02 -0.8098636E-09  0.0000000E+00 -0.1956203E-04
  0.9545454E+00  0.0000000E+00  0.5050505E-02 -0.6653881E-09  0.0000000E+00 -0.1956351E-04
  0.9646465E+00  0.0000000E+00  0.5050505E-02 -0.5192359E-09  0.0000000E+00 -0.1956470E-04
  0.9747475E+00  0.0000000E+00  0.5050505E-02 -0.3717945E-09  0.0000000E+00 -0.1956559E-04
  0.9848485E+00  0.0000000E+00  0.5050505E-02 -0.2234404E-09  0.0000000E+00 -0.1956619E-04
  0.9974747E+00  0.0000000E+00  0.5050505E-02 -0.7454207E-10  0.0000000E+00 -0.1956649E-04
  0.5050505E-02  0.0000000E+00  0.1515152E-01  0.1781247E-09  0.0000000E+00 -0.1956521E-04
  0.1515152E-01  0.0000000E+00  0.1515152E-01  0.5342980E-09  0.0000000E+00 -0.1956497E-04
  0.2525252E-01  0.0000000E+00  0.1515152E-01  0.8902219E-09  0.0000000E+00 -0.1956449E-04
  0.3535353E-01  0.0000000E+00  0.1515152E-01  0.1245714E-08  0.0000000E+00 -0.1956377E-04
  0.4545455E-01  0.0000000E+00  0.1515152E-01  0.1600575E-08  0.0000000E+00 -0.1956281E-04
  0.5555556E-01  0.0000000E+00  0.1515152E-01  0.1954576E-08  0.0000000E+00 -0.1956161E-04
  0.6565657E-01  0.0000000E+00  0.1515152E-01  0.2307453E-08  0.0000000E+00 -0.1956018E-04
  0.7575758E-01  0.0000000E+00  0.1515152E-01  0.2658897E-08  0.0000000E+00 -0.1955850E-04
  0.8585858E-01  0.0000000E+00  0.1515152E-01  0.3008549E-08  0.0000000E+00 -0.1955660E-04
  0.9595960E-01  0.0000000E+00  0.1515152E-01  0.3355992E-08  0.0000000E+00 -0.1955445E-04
  0.1060606E+00  0.0000000E+00  0.1515152E-01  0.3700741E-08  0.0000000E+00 -0.1955207E-04
  0.1161616E+00  0.0000000E+00  0.1515152E-01  0.4042242E-08  0.0000000E+00 -0.1954947E-04
  0.1262626E+00  0.0000000E+00  0.1515152E-01  0.4379861E-08  0.0000000E+00 -0.1954663E-04
  0.1363636E+00  0.0000000E+00  0.1515152E-01  0.4712880E-08  0.0000000E+00 -0.1954357E-04
  0.1464646E+00  0.0000000E+00  0.1515152E-01  0.5040494E-08  0.0000000E+00 -0.1954028E-04
  0.1565657E+00  0.0000000E+00  0.1515152E-01  0.5361802E-08  0.0000000E+00 -0.1953677E-04
  0.1666667E+00  0.0000000E+00  0.1515152E-01  0.5675809E-08  0.0000000E+00 -0.1953306E-04
  0.1767677E+00  0.0000000E+00  0.1515152E-01  0.5981421E-08  0.0000000E+00 -0.1952913E-04
  0.1868687E+00  0.0000000E+00  0.1515152E-01  0.6277441E-08  0.0000000E+00 -0.1952499E-04
  0.1969697E+00  0.0000000E+00  0.1515152E-01  0.6562575E-08  0.0000000E+00 -0.1952067E-04
  0.2070707E+00  0.0000000E+00  0.1515152E-01  0.6835430E-08  0.0000000E+00 -0.1951615E-04
  0.2171717E+00  0.0000000E+00  0.1515152E-01  0.7094518E-08  0.0000000E+00 -0.1951145E-04
  0.2272727E+00  0.0000000E+00  0.1515152E-01  0.7338260E-08  0.0000000E+00 -0.1950659E-04
  0.2373737E+00  0.0000000E+00  0.1515152E-01  0.7564994E-08  0.0000000E+00 -0.1950156E-04
  0.2474747E+00  0.0000000E+00  0.1515152E-01  0.7772984E-08  0.0000000E+00 -0.1949639E-04
  0.2575758E+00  0.0000000E+00  0.1515152E-01  0.7960435E-08  0.0000000E+00 -0.1949108E-04
  0.2676768E+00  0.0000000E+00  0.1515152E-01  0.8125498E-08  0.0000000E+00 -0.1948565E-04
  0.2777778E+00  0.0000000E+00  0.1515152E-01  0.8266296E-08  0.0000000E+00 -0.1948012E-04
  0.2878788E+00  0.0000000E+00  0.1515152E-01  0.8380939E-08  0.0000000E+00 -0.1947450E-04
  0.2979798E+00  0.0000000E+00  0.1515152E-01  0.8467543E-08  0.0000000E+00 -0.1946882E-04
  0.3080808E+00  0.0000000E+00  0.1515152E-01  0.8524260E-08  0.0000000E+00 -0.1946308E-04
  0.3181818E+00  0.0000000E+00  0.1515152E-01  0.8549299E-08  0.0000000E+00 -0.1945732E-04
  0.3282828E+00  0.0000000E+00  0.1515152E-01  0.8540959E-08  0.0000000E+00 -0.1945155E-04
  0.3383838E+00  0.0000000E+00  0.1515152E-01  0.8497657E-08  0.0000000E+00 -0.1944579E-04
  0.3484848E+00  0.0000000E+00  0.1515152E-01  0.8417960E-08  0.0000000E+00 -0.1944008E-04
  0.3585859E+00  0.0000000E+00  0.1515152E-01  0.8300621E-08  0.0000000E+00 -0.1943443E-04
  0.3686869E+00  0.0000000E+00  0.1515152E-01  0.8144610E-08  0.0000000E+00 -0.1942888E-04
  0.3787879E+00  0.0000000E+00  0.1515152E-01  0.7949148E-08  0.0000000E+00 -0.1942344E-04
  0.3888889E+00  0.0000000E+00  0.1515152E-01  0.7713741E-08  0.0000000E+00 -0.1941815E-04
  0.3989899E+00  0.0000000E+00  0.1515152E-01  0.7438208E-08  0.0000000E+00 -0.1941302E-04
  0.4090909E+00  0.0000000E+00  0.1515152E-01  0.7122714E-08  0.0000000E+00 -0.1940810E-04
  0.4191919E+00  0.0000000E+00  0.1515152E-01  0.6767787E-08  0.0000000E+00 -0.1940341E-04
  0.4292929E+00  0.0000000E+00  0.1515152E-01  0.6374343E-08  0.0000000E+00 -0.1939896E-04
  0.4393939E+00  0.0000000E+00  0.1515152E-01  0.5943701E-08  0.0000000E+00 -0.1939480E-04
  0.4494950E+00  0.0000000E+00  0.1515152E-01  0.5477585E-08  0.0000000E+00 -0.1939093E-04
  0.4595959E+00  0.0000000E+00  0.1515152E-01  0.4978132E-08  0.0000000E+00 -0.1938740E-04
  0.4696970E+00  0.0000000E+00  0.1515152E-01  0.4447880E-08  0.0000000E+00 -0.1938421E-04
  0.4797980E+00  0.0000000E+00  0.1515152E-01  0.3889756E-08  0.0000000E+00 -0.1938139E-04
  0.4898990E+00  0.0000000E+00  0.1515152E-01  0.3307051E-08  0.0000000E+00 -0.1937896E-04
  0.5000000E+00  0.0000000E+00  0.1515152E-01  0.2703392E-08  0.0000000E+00 -0.1937692E-04
  0.5101010E+00  0.0000000E+00  0.1515152E-01  0.2082698E-08  0.0000000E+00 -0.1937530E-04
  0.5202020E+00  0.0000000E+00  0.1515152E-01  0.1449142E-08  0.0000000E+00 -0.1937411E-04
  0.5303030E+00  0.0000000E+00  0.1515152E-01  0.8070904E-09  0.0000000E+00 -0.1937335E-04
  0.5404040E+00  0.0000000E+00  0.1515152E-01  0.1610527E-09  0.0000000E+00 -0.1937302E-04
  0.5505050E+00  0.0000000E+00  0.1515152E-01 -0.4843832E-09  0.0000000E+00 -0.1937313E-04
  0.5606061E+00  0.0000000E+00  0.1515152E-01 -0.1124613E-08  0.0000000E+00 -0.1937367E-04
  0.5707071E+00  0.0000000E+00  0.1515152E-01 -0.1755078E-08  0.0000000E+00 -0.1937465E-04
  0.5808081E+00  0.0000000E+00  0.1515152E-01 -0.2371331E-08  0.0000000E+00 -0.1937605E-04
  0.5909091E+00  0.0000000E+00  0.1515152E-01 -0.2969094E-08  0.0000000E+00 -0.1937785E-04
  0.6010101E+00  0.0000000E+00  0.1515152E-01 -0.3544313E-08  0.0000000E+00 -0.1938006E-04
  0.6111111E+00  0.0000000E+00  0.1515152E-01 -0.4093214E-08  0.0000000E+00 -0.1938264E-04
  0.6212121E+00  0.0000000E+00  0.1515152E-01 -0.4612338E-08  0.0000000E+00 -0.1938559E-04
  0.6313131E+00  0.0000000E+00  0.1515152E-01 -0.5098587E-08  0.0000000E+00 -0.1938887E-04
  0.6414142E+00  0.0000000E+00  0.1515152E-01 -0.5549243E-08  0.0000000E+00 -0.1939248E-04
  0.6515151E+00  0.0000000E+00  0.1515152E-01 -0.5961997E-08  0.0000000E+00 -0.1939637E-04
  0.6616161E+00  0.0000000E+00  0.1515152E-01 -0.6334952E-08  0.0000000E+00 -0.1940053E-04
  0.6717172E+00  0.0000000E+00  0.1515152E-01 -0.6666633E-08  0.0000000E+00 -0.1940493E-04
  0.6818182E+00  0.0000000E+00  0.1515152E-01 -0.6955976E-08  0.0000000E+00 -0.1940954E-04
  0.6919192E+00  0.0000000E+00  0.1515152E-01 -0.7202323E-08  0.0000000E+00 -0.1941433E-04
  0.7020202E+00  0.0000000E+00  0.1515152E-01 -0.7405398E-08  0.0000000E+00 -0.1941926E-04
  0.7121212E+00  0.0000000E+00  0.1515152E-01 -0.7565287E-08  0.0000000E+00 -0.1942433E-04
  0.7222222E+00  0.0000000E+00  0.1515152E-01 -0.7682410E-08  0.0000000E+00 -0.1942948E-04
  0.7323232E+00  0.0000000E+00  0.1515152E-01 -0.7757489E-08  0.0000000E+00 -0.1943470E-04
  0.7424242E+00  0.0000000E+00  0.1515152E-01 -0.7791514E-08  0.0000000E+00 -0.1943995E-04
  0.7525253E+00  0.0000000E+00  0.1515152E-01 -0.7785710E-08  0.0000000E+00 -0.1944522E-04
  0.7626263E+00  0.0000000E+00  0.1515152E-01 -0.7741504E-08  0.0000000E+00 -0.1945046E-04
  0.7727273E+00  0.0000000E+00  0.1515152E-01 -0.7660485E-08  0.0000000E+00 -0.1945567E-04
  0.7828283E+00  0.0000000E+00  0.1515152E-01 -0.7544374E-08  0.0000000E+00 -0.1946080E-04
  0.7929293E+00  0.0000000E+00  0.1515152E-01 -0.7394994E-08  0.0000000E+00 -0.1946585E-04
  0.8030303E+00  0.0000000E+00  0.1515152E-01 -0.7214236E-08  0.0000000E+00 -0.1947078E-04
  0.8131313E+00  0.0000000E+00  0.1515152E-01 -0.7004037E-08  0.0000000E+00 -0.1947558E-04
  0.8232324E+00  0.0000000E+00  0.1515152E-01 -0.6766350E-08  0.0000000E+00 -0.1948023E-04
  0.8333333E+00  0.0000000E+00  0.1515152E-01 -0.6503127E-08  0.0000000E+00 -0.1948471E-04
  0.8434343E+00  0.0000000E+00  0.1515152E-01 -0.6216301E-08  0.0000000E+00 -0.1948900E-04
  0.8535354E+00  0.0000000E+00  0.1515152E-01 -0.5907767E-08  0.0000000E+00 -0.1949310E-04
  0.8636364E+00  0.0000000E+00  0.1515152E-01 -0.5579372E-08  0.0000000E+00 -0.1949697E-04
  0.8737374E+00  0.0000000E+00  0.1515152E-01 -0.5232906E-08  0.0000000E+00 -0.1950062E-04
  0.8838384E+00  0.0000000E+00  0.1515152E-01 -0.4870091E-08  0.0000000E+00 -0.1950403E-04
  0.8939394E+00  0.0000000E+00  0.1515152E-01 -0.4492584E-08  0.0000000E+00 -0.1950719E-04
  0.9040404E+00  0.0000000E+00  0.1515152E-01 -0.4101965E-08  0.0000000E+00 -0.1951009E-04
  0.9141414E+00  0.0000000E+00  0.1515152E-01 -0.3699744E-08  0.0000000E+00 -0.1951272E-04
  0.9242424E+00  0.0000000E+00  0.1515152E-01 -0.3287362E-08  0.0000000E+00 -0.1951508E-04
  0.9343435E+00  0.0000000E+00  0.1515152E-01 -0.2866190E-08  0.0000000E+00 -0.1951715E-04
  0.9444444E+00  0.0000000E+00  0.1515152E-01 -0.2437537E-08  0.0000000E+00 -0.1951894E-04
  0.9545454E+00  0.0000000E+00  0.1515152E-01 -0.2002656E-08  0.0000000E+00 -0.1952044E-04
  0.9646465E+00  0.0000000E+00  0.1515152E-01 -0.1562751E-08  0.0000000E+00 -0.1952164E-04
  0.9747475E+00  0.0000000E+00  0.1515152E-01 -0.1118983E-08  0.0000000E+00 -0.1952255E-04
  0.9848485E+00  0.0000000E+00  0.1515152E-01 -0.6724787E-09  0.0000000E+00 -0.1952315E-04
  0.9974747E+00  0.0000000E+00  0.1515152E-01 -0.2243441E-09  0.0000000E+00 -0.1952345E-04
  0.5050505E-02  0.0000000E+00  0.2525252E-01  0.2984992E-09  0.0000000E+00 -0.1948010E-04
  0.1515152E-01  0.0000000E+00  0.2525252E-01  0.8953729E-09  0.0000000E+00 -0.1947986E-04
  0.2525252E-01  0.0000000E+00  0.2525252E-01  0.1491845E-08  0.0000000E+00 -0.1947937E-04
  0.3535353E-01  0.0000000E+00  0.2525252E-01  0.2087620E-08  0.0000000E+00 -0.1947863E-04
  0.4545455E-01  0.0000000E+00  0.2525252E-01  0.2682375E-08  0.0000000E+00 -0.1947765E-04
  0.5555556E-01  0.0000000E+00  0.2525252E-01  0.3275737E-08  0.0000000E+00 -0.1947643E-04
  0.6565657E-01  0.0000000E+00  0.2525252E-01  0.3867273E-08  0.0000000E+00 -0.1947497E-04
  0.7575758E-01  0.0000000E+00  0.2525252E-01  0.4456476E-08  0.0000000E+00 -0.1947326E-04
  0.8585858E-01  0.0000000E+00  0.2525252E-01  0.5042754E-08  0.0000000E+00 -0.1947131E-04
  0.9595960E-01  0.0000000E+00  0.2525252E-01  0.5625416E-08  0.0000000E+00 -0.1946912E-04
  0.1060606E+00  0.0000000E+00  0.2525252E-01  0.6203662E-08  0.0000000E+00 -0.1946670E-04
  0.1161616E+00  0.0000000E+00  0.2525252E-01  0.6776569E-08  0.0000000E+00 -0.1946403E-04
  0.1262626E+00  0.0000000E+00  0.2525252E-01  0.7343083E-08  0.0000000E+00 -0.1946113E-04
  0.1363636E+00  0.0000000E+00  0.2525252E-01  0.7902008E-08  0.0000000E+00 -0.1945800E-04
  0.1464646E+00  0.0000000E+00  0.2525252E-01  0.8452001E-08  0.0000000E+00 -0.1945464E-04
  0.1565657E+00  0.0000000E+00  0.2525252E-01  0.8991558E-08  0.0000000E+00 -0.1945106E-04
  0.1666667E+00  0.0000000E+00  0.2525252E-01  0.9519014E-08  0.0000000E+00 -0.1944726E-04
  0.1767677E+00  0.0000000E+00  0.2525252E-01  0.1003254E-07  0.0000000E+00 -0.1944324E-04
  0.1868687E+00  0.0000000E+00  0.2525252E-01  0.1053012E-07  0.0000000E+00 -0.1943901E-04
  0.1969697E+00  0.0000000E+00  0.2525252E-01  0.1100961E-07  0.0000000E+00 -0.1943458E-04
  0.2070707E+00  0.0000000E+00  0.2525252E-01  0.1146864E-07  0.0000000E+00 -0.1942996E-04
  0.2171717E+00  0.0000000E+00  0.2525252E-01  0.1190473E-07  0.0000000E+00 -0.1942515E-04
  0.2272727E+00  0.0000000E+00  0.2525252E-01  0.1231523E-07  0.0000000E+00 -0.1942016E-04
  0.2373737E+00  0.0000000E+00  0.2525252E-01  0.1269733E-07  0.0000000E+00 -0.1941501E-04
  0.2474747E+00  0.0000000E+00  0.2525252E-01  0.1304811E-07  0.0000000E+00 -0.1940971E-04
  0.2575758E+00  0.0000000E+00  0.2525252E-01  0.1336455E-07  0.0000000E+00 -0.1940426E-04
  0.2676768E+00  0.0000000E+00  0.2525252E-01  0.1364353E-07  0.0000000E+00 -0.1939869E-04
  0.2777778E+00  0.0000000E+00  0.2525252E-01  0.1388187E-07  0.0000000E+00 -0.1939302E-04
  0.2878788E+00  0.0000000E+00  0.2525252E-01  0.1407639E-07  0.0000000E+00 -0.1938725E-04
  0.2979798E+00  0.0000000E+00  0.2525252E-01  0.1422390E-07  0.0000000E+00 -0.1938141E-04
  0.3080808E+00  0.0000000E+00  0.2525252E-01  0.1432127E-07  0.0000000E+00 -0.1937551E-04
  0.3181818E+00  0.0000000E+00  0.2525252E-01  0.1436545E-07  0.0000000E+00 -0.1936959E-04
  0.3282828E+00  0.0000000E+00  0.2525252E-01  0.1435356E-07  0.0000000E+00 -0.1936365E-04
  0.3383838E+00  0.0000000E+00  0.2525252E-01  0.1428291E-07  0.0000000E+00 -0.1935773E-04
  0.3484848E+00  0.0000000E+00  0.2525252E-01  0.1415105E-07  0.0000000E+00 -0.1935185E-04
  0.3585859E+00  0.0000000E+00  0.2525252E-01  0.1395585E-07  0.0000000E+00 -0.1934603E-04
  0.3686869E+00  0.0000000E+00  0.2525252E-01  0.1369554E-07  0.0000000E+00 -0.1934031E-04
  0.3787879E+00  0.0000000E+00  0.2525252E-01  0.1336878E-07  0.0000000E+00 -0.1933470E-04
  0.3888889E+00  0.0000000E+00  0.2525252E-01  0.1297469E-07  0.0000000E+00 -0.1932924E-04
  0.3989899E+00  0.0000000E+00  0.2525252E-01  0.1251294E-07  0.0000000E+00 -0.1932396E-04
  0.4090909E+00  0.0000000E+00  0.2525252E-01  0.1198377E-07  0.0000000E+00 -0.1931888E-04
  0.4191919E+00  0.0000000E+00  0.2525252E-01  0.1138804E-07  0.0000000E+00 -0.1931403E-04
  0.4292929E+00  0.0000000E+00  0.2525252E-01  0.1072727E-07  0.0000000E+00 -0.1930944E-04
  0.4393939E+00  0.0000000E+00  0.2525252E-01  0.1000365E-07  0.0000000E+00 -0.1930514E-04
  0.4494950E+00  0.0000000E+00  0.2525252E-01  0.9220077E-08  0.0000000E+00 -0.1930115E-04
  0.4595959E+00  0.0000000E+00  0.2525252E-01  0.8380136E-08  0.0000000E+00 -0.1929749E-04
  0.4696970E+00  0.0000000E+00  0.2525252E-01  0.7488097E-08  0.0000000E+00 -0.1929419E-04
  0.4797980E+00  0.0000000E+00  0.2525252E-01  0.6548891E-08  0.0000000E+00 -0.1929128E-04
  0.4898990E+00  0.0000000E+00  0.2525252E-01  0.5568074E-08  0.0000000E+00 -0.1928876E-04
  0.5000000E+00  0.0000000E+00  0.2525252E-01  0.4551767E-08  0.0000000E+00 -0.1928666E-04
  0.5101010E+00  0.0000000E+00  0.2525252E-01  0.3506598E-08  0.0000000E+00 -0.1928498E-04
  0.5202020E+00  0.0000000E+00  0.2525252E-01  0.2439621E-08  0.0000000E+00 -0.1928374E-04
  0.5303030E+00  0.0000000E+00  0.2525252E-01  0.1358225E-08  0.0000000E+00 -0.1928296E-04
  0.5404040E+00  0.0000000E+00  0.2525252E-01  0.2700418E-09  0.0000000E+00 -0.1928262E-04
  0.5505050E+00  0.0000000E+00  0.2525252E-01 -0.8171625E-09  0.0000000E+00 -0.1928273E-04
  0.5606061E+00  0.0000000E+00  0.2525252E-01 -0.1895592E-08  0.0000000E+00 -0.1928330E-04
  0.5707071E+00  0.0000000E+00  0.2525252E-01 -0.2957531E-08  0.0000000E+00 -0.1928431E-04
  0.5808081E+00  0.0000000E+00  0.2525252E-01 -0.3995451E-08  0.0000000E+00 -0.1928576E-04
  0.5909091E+00  0.0000000E+00  0.2525252E-01 -0.5002113E-08  0.0000000E+00 -0.1928763E-04
  0.6010101E+00  0.0000000E+00  0.2525252E-01 -0.5970661E-08  0.0000000E+00 -0.1928992E-04
  0.6111111E+00  0.0000000E+00  0.2525252E-01 -0.6894714E-08  0.0000000E+00 -0.1929260E-04
  0.6212121E+00  0.0000000E+00  0.2525252E-01 -0.7768431E-08  0.0000000E+00 -0.1929565E-04
  0.6313131E+00  0.0000000E+00  0.2525252E-01 -0.8586583E-08  0.0000000E+00 -0.1929905E-04
  0.6414142E+00  0.0000000E+00  0.2525252E-01 -0.9344592E-08  0.0000000E+00 -0.1930278E-04
  0.6515151E+00  0.0000000E+00  0.2525252E-01 -0.1003857E-07  0.0000000E+00 -0.1930681E-04
  0.6616161E+00  0.0000000E+00  0.2525252E-01 -0.1066534E-07  0.0000000E+00 -0.1931111E-04
  0.6717172E+00  0.0000000E+00  0.2525252E-01 -0.1122243E-07  0.0000000E+00 -0.1931566E-04
  0.6818182E+00  0.0000000E+00  0.2525252E-01 -0.1170807E-07  0.0000000E+00 -0.1932042E-04
  0.6919192E+00  0.0000000E+00  0.2525252E-01 -0.1212118E-07  0.0000000E+00 -0.1932537E-04
  0.7020202E+00  0.0000000E+00  0.2525252E-01 -0.1246134E-07  0.0000000E+00 -0.1933047E-04
  0.7121212E+00  0.0000000E+00  0.2525252E-01 -0.1272871E-07  0.0000000E+00 -0.1933569E-04
  0.7222222E+00  0.0000000E+00  0.2525252E-01 -0.1292404E-07  0.0000000E+00 -0.1934101E-04
  0.7323232E+00  0.0000000E+00  0.2525252E-01 -0.1304858E-07  0.0000000E+00 -0.1934640E-04
  0.7424242E+00  0.0000000E+00  0.2525252E-01 -0.1310404E-07  0.0000000E+00 -0.1935182E-04
  0.7525253E+00  0.0000000E+00  0.2525252E-01 -0.1309251E-07  0.0000000E+00 -0.1935724E-04
  0.7626263E+00  0.0000000E+00  0.2525252E-01 -0.1301643E-07  0.0000000E+00 -0.1936265E-04
  0.7727273E+00  0.0000000E+00  0.2525252E-01 -0.1287850E-07  0.0000000E+00 -0.1936801E-04
  0.7828283E+00  0.0000000E+00  0.2525252E-01 -0.1268164E-07  0.0000000E+00 -0.1937330E-04
  0.7929293E+00  0.0000000E+00  0.2525252E-01 -0.1242896E-07  0.0000000E+00 -0.1937849E-04
  0.8030303E+00  0.0000000E+00  0.2525252E-01 -0.1212365E-07  0.0000000E+00 -0.1938357E-04
  0.8131313E+00  0.0000000E+00  0.2525252E-01 -0.1176899E-07  0.0000000E+00 -0.1938851E-04
  0.8232324E+00  0.0000000E+00  0.2525252E-01 -0.1136828E-07  0.0000000E+00 -0.1939329E-04
  0.8333333E+00  0.0000000E+00  0.2525252E-01 -0.1092481E-07  0.0000000E+00 -0.1939789E-04
  0.8434343E+00  0.0000000E+00  0.2525252E-01 -0.1044185E-07  0.0000000E+00 -0.1940230E-04
  0.8535354E+00  0.0000000E+00  0.2525252E-01 -0.9922584E-08  0.0000000E+00 -0.1940651E-04
  0.8636364E+00  0.0000000E+00  0.2525252E-01 -0.9370122E-08  0.0000000E+00 -0.1941049E-04
  0.8737374E+00  0.0000000E+00  0.2525252E-01 -0.8787470E-08  0.0000000E+00 -0.1941423E-04
  0.8838384E+00  0.0000000E+00  0.2525252E-01 -0.8177523E-08  0.0000000E+00 -0.1941773E-04
  0.8939394E+00  0.0000000E+00  0.2525252E-01 -0.7543055E-08  0.0000000E+00 -0.1942097E-04
  0.9040404E+00  0.0000000E+00  0.2525252E-01 -0.6886718E-08  0.0000000E+00 -0.1942395E-04
  0.9141414E+00  0.0000000E+00  0.2525252E-01 -0.6211039E-08  0.0000000E+00 -0.1942665E-04
  0.9242424E+00  0.0000000E+00  0.2525252E-01 -0.5518426E-08  0.0000000E+00 -0.1942906E-04
  0.9343435E+00  0.0000000E+00  0.2525252E-01 -0.4811170E-08  0.0000000E+00 -0.1943119E-04
  0.9444444E+00  0.0000000E+00  0.2525252E-01 -0.4091459E-08  0.0000000E+00 -0.1943303E-04
  0.9545454E+00  0.0000000E+00  0.2525252E-01 -0.3361381E-08  0.0000000E+00 -0.1943456E-04
  0.9646465E+00  0.0000000E+00  0.2525252E-01 -0.2622941E-08  0.0000000E+00 -0.1943579E-04
  0.9747475E+00  0.0000000E+00  0.2525252E-01 -0.1878073E-08  0.0000000E+00 -0.1943672E-04
  0.9848485E+00  0.0000000E+00  0.2525252E-01 -0.1128654E-08  0.0000000E+00 -0.1943734E-04
  0.9974747E+00  0.0000000E+00  0.2525252E-01 -0.3765231E-09  0.0000000E+00 -0.1943765E-04
  0.5050505E-02  0.0000000E+00  0.3535353E-01  0.4215754E-09  0.0000000E+00 -0.1935300E-04
  0.1515152E-01  0.0000000E+00  0.3535353E-01  0.1264559E-08  0.0000000E+00 -0.1935274E-04
  0.2525252E-01  0.0000000E+00  0.3535353E-01  0.2107009E-08  0.0000000E+00 -0.1935224E-04
  0.3535353E-01  0.0000000E+00  0.3535353E-01  0.2948532E-08  0.0000000E+00 -0.1935148E-04
  0.4545455E-01  0.0000000E+00  0.3535353E-01  0.3788693E-08  0.0000000E+00 -0.1935048E-04
  0.5555556E-01  0.0000000E+00  0.3535353E-01  0.4626986E-08  0.0000000E+00 -0.1934922E-04
  0.6565657E-01  0.0000000E+00  0.3535353E-01  0.5462823E-08  0.0000000E+00 -0.1934771E-04
  0.7575758E-01  0.0000000E+00  0.3535353E-01  0.6295509E-08  0.0000000E+00 -0.1934595E-04
  0.8585858E-01  0.0000000E+00  0.3535353E-01  0.7124229E-08  0.0000000E+00 -0.1934394E-04
  0.9595960E-01  0.0000000E+00  0.3535353E-01  0.7948026E-08  0.0000000E+00 -0.1934168E-04
  0.1060606E+00  0.0000000E+00  0.3535353E-01  0.8765789E-08  0.0000000E+00 -0.1933918E-04
  0.1161616E+00  0.0000000E+00  0.3535353E-01  0.9576233E-08  0.0000000E+00 -0.1933643E-04
  0.1262626E+00  0.0000000E+00  0.3535353E-01  0.1037789E-07  0.0000000E+00 -0.1933344E-04
  0.1363636E+00  0.0000000E+00  0.3535353E-01  0.1116907E-07  0.0000000E+00 -0.1933021E-04
  0.1464646E+00  0.0000000E+00  0.3535353E-01  0.1194791E-07  0.0000000E+00 -0.1932674E-04
  0.1565657E+00  0.0000000E+00  0.3535353E-01  0.1271229E-07  0.0000000E+00 -0.1932304E-04
  0.1666667E+00  0.0000000E+00  0.3535353E-01  0.1345986E-07  0.0000000E+00 -0.1931911E-04
  0.1767677E+00  0.0000000E+00  0.3535353E-01  0.1418804E-07  0.0000000E+00 -0.1931495E-04
  0.1868687E+00  0.0000000E+00  0.3535353E-01  0.1489400E-07  0.0000000E+00 -0.1931058E-04
  0.1969697E+00  0.0000000E+00  0.3535353E-01  0.1557469E-07  0.0000000E+00 -0.1930600E-04
  0.2070707E+00  0.0000000E+00  0.3535353E-01  0.1622678E-07  0.0000000E+00 -0.1930121E-04
  0.2171717E+00  0.0000000E+00  0.3535353E-01  0.1684673E-07  0.0000000E+00 -0.1929623E-04
  0.2272727E+00  0.0000000E+00  0.3535353E-01  0.1743078E-07  0.0000000E+00 -0.1929107E-04
  0.2373737E+00  0.0000000E+00  0.3535353E-01  0.1797496E-07  0.0000000E+00 -0.1928573E-04
  0.2474747E+00  0.0000000E+00  0.3535353E-01  0.1847512E-07  0.0000000E+00 -0.1928022E-04
  0.2575758E+00  0.0000000E+00  0.3535353E-01  0.1892692E-07  0.0000000E+00 -0.1927457E-04
  0.2676768E+00  0.0000000E+00  0.3535353E-01  0.1932595E-07  0.0000000E+00 -0.1926879E-04
  0.2777778E+00  0.0000000E+00  0.3535353E-01  0.1966765E-07  0.0000000E+00 -0.1926289E-04
  0.2878788E+00  0.0000000E+00  0.3535353E-01  0.1994748E-07  0.0000000E+00 -0.1925690E-04
  0.2979798E+00  0.0000000E+00  0.3535353E-01  0.2016086E-07  0.0000000E+00 -0.1925082E-04