title = "dataset water"
variables = "x", "y", "z", "vx", "vy", "vz"
zone t = "velocities, solution time =  9.000E+00 days        " i =   99, j =   99, k =    1,  f=point
  0.5050505E-02  0.0000000E+00  0.5050505E-02 -0.4884281E-14  0.0000000E+00 -0.6630543E-04
  0.1515152E-01  0.0000000E+00  0.5050505E-02 -0.7074214E-13  0.0000000E+00 -0.6630543E-04
  0.2525252E-01  0.0000000E+00  0.5050505E-02 -0.1335184E-12  0.0000000E+00 -0.6630543E-04
  0.3535353E-01  0.0000000E+00  0.5050505E-02 -0.1872455E-12  0.0000000E+00 -0.6630543E-04
  0.4545455E-01  0.0000000E+00  0.5050505E-02 -0.2438565E-12  0.0000000E+00 -0.6630543E-04
  0.5555556E-01  0.0000000E+00  0.5050505E-02 -0.2803098E-12  0.0000000E+00 -0.6630543E-04
  0.6565657E-01  0.0000000E+00  0.5050505E-02 -0.3050614E-12  0.0000000E+00 -0.6630543E-04
  0.7575758E-01  0.0000000E+00  0.5050505E-02 -0.3259427E-12  0.0000000E+00 -0.6630543E-04
  0.8585858E-01  0.0000000E+00  0.5050505E-02 -0.3403052E-12  0.0000000E+00 -0.6630543E-04
  0.9595960E-01  0.0000000E+00  0.5050505E-02 -0.3418618E-12  0.0000000E+00 -0.6630543E-04
  0.1060606E+00  0.0000000E+00  0.5050505E-02 -0.3265674E-12  0.0000000E+00 -0.6630543E-04
  0.1161616E+00  0.0000000E+00  0.5050505E-02 -0.2938330E-12  0.0000000E+00 -0.6630543E-04
  0.1262626E+00  0.0000000E+00  0.5050505E-02 -0.2455455E-12  0.0000000E+00 -0.6630543E-04
  0.1363636E+00  0.0000000E+00  0.5050505E-02 -0.1848980E-12  0.0000000E+00 -0.6630543E-04
  0.1464646E+00  0.0000000E+00  0.5050505E-02 -0.1153801E-12  0.0000000E+00 -0.6630543E-04
  0.1565657E+00  0.0000000E+00  0.5050505E-02 -0.4021223E-13  0.0000000E+00 -0.6630543E-04
  0.1666667E+00  0.0000000E+00  0.5050505E-02  0.3802671E-13  0.0000000E+00 -0.6630543E-04
  0.1767677E+00  0.0000000E+00  0.5050505E-02  0.1174710E-12  0.0000000E+00 -0.6630543E-04
  0.1868687E+00  0.0000000E+00  0.5050505E-02  0.1970645E-12  0.0000000E+00 -0.6630543E-04
  0.1969697E+00  0.0000000E+00  0.5050505E-02  0.2754865E-12  0.0000000E+00 -0.6630543E-04
  0.2070707E+00  0.0000000E+00  0.5050505E-02  0.3507111E-12  0.0000000E+00 -0.6630543E-04
  0.2171717E+00  0.0000000E+00  0.5050505E-02  0.4234200E-12  0.0000000E+00 -0.6630543E-04
  0.2272727E+00  0.0000000E+00  0.5050505E-02  0.4891328E-12  0.0000000E+00 -0.6630543E-04
  0.2373737E+00  0.0000000E+00  0.5050505E-02  0.5483983E-12  0.0000000E+00 -0.6630543E-04
  0.2474747E+00  0.0000000E+00  0.5050505E-02  0.6038545E-12  0.0000000E+00 -0.6630543E-04
  0.2575758E+00  0.0000000E+00  0.5050505E-02  0.6458315E-12  0.0000000E+00 -0.6630543E-04
  0.2676768E+00  0.0000000E+00  0.5050505E-02  0.6775225E-12  0.0000000E+00 -0.6630542E-04
  0.2777778E+00  0.0000000E+00  0.5050505E-02  0.7007155E-12  0.0000000E+00 -0.6630542E-04
  0.2878788E+00  0.0000000E+00  0.5050505E-02  0.7128631E-12  0.0000000E+00 -0.6630542E-04
  0.2979798E+00  0.0000000E+00  0.5050505E-02  0.7111130E-12  0.0000000E+00 -0.6630542E-04
  0.3080808E+00  0.0000000E+00  0.5050505E-02  0.6947564E-12  0.0000000E+00 -0.6630542E-04
  0.3181818E+00  0.0000000E+00  0.5050505E-02  0.6655201E-12  0.0000000E+00 -0.6630542E-04
  0.3282828E+00  0.0000000E+00  0.5050505E-02  0.6265826E-12  0.0000000E+00 -0.6630542E-04
  0.3383838E+00  0.0000000E+00  0.5050505E-02  0.5814335E-12  0.0000000E+00 -0.6630541E-04
  0.3484848E+00  0.0000000E+00  0.5050505E-02  0.5330345E-12  0.0000000E+00 -0.6630541E-04
  0.3585859E+00  0.0000000E+00  0.5050505E-02  0.4836679E-12  0.0000000E+00 -0.6630541E-04
  0.3686869E+00  0.0000000E+00  0.5050505E-02  0.4350460E-12  0.0000000E+00 -0.6630541E-04
  0.3787879E+00  0.0000000E+00  0.5050505E-02  0.3895624E-12  0.0000000E+00 -0.6630541E-04
  0.3888889E+00  0.0000000E+00  0.5050505E-02  0.3473582E-12  0.0000000E+00 -0.6630541E-04
  0.3989899E+00  0.0000000E+00  0.5050505E-02  0.3124551E-12  0.0000000E+00 -0.6630541E-04
  0.4090909E+00  0.0000000E+00  0.5050505E-02  0.2828192E-12  0.0000000E+00 -0.6630541E-04
  0.4191919E+00  0.0000000E+00  0.5050505E-02  0.2498955E-12  0.0000000E+00 -0.6630541E-04
  0.4292929E+00  0.0000000E+00  0.5050505E-02  0.2338965E-12  0.0000000E+00 -0.6630541E-04
  0.4393939E+00  0.0000000E+00  0.5050505E-02  0.2258675E-12  0.0000000E+00 -0.6630541E-04
  0.4494950E+00  0.0000000E+00  0.5050505E-02  0.2153333E-12  0.0000000E+00 -0.6630541E-04
  0.4595959E+00  0.0000000E+00  0.5050505E-02  0.2034170E-12  0.0000000E+00 -0.6630541E-04
  0.4696970E+00  0.0000000E+00  0.5050505E-02  0.1963977E-12  0.0000000E+00 -0.6630541E-04
  0.4797980E+00  0.0000000E+00  0.5050505E-02  0.1984739E-12  0.0000000E+00 -0.6630541E-04
  0.4898990E+00  0.0000000E+00  0.5050505E-02  0.2094414E-12  0.0000000E+00 -0.6630541E-04
  0.5000000E+00  0.0000000E+00  0.5050505E-02  0.2287198E-12  0.0000000E+00 -0.6630540E-04
  0.5101010E+00  0.0000000E+00  0.5050505E-02  0.2486103E-12  0.0000000E+00 -0.6630540E-04
  0.5202020E+00  0.0000000E+00  0.5050505E-02  0.2688668E-12  0.0000000E+00 -0.6630540E-04
  0.5303030E+00  0.0000000E+00  0.5050505E-02  0.2958082E-12  0.0000000E+00 -0.6630540E-04
  0.5404040E+00  0.0000000E+00  0.5050505E-02  0.3041422E-12  0.0000000E+00 -0.6630540E-04
  0.5505050E+00  0.0000000E+00  0.5050505E-02  0.3013319E-12  0.0000000E+00 -0.6630540E-04
  0.5606061E+00  0.0000000E+00  0.5050505E-02  0.2947396E-12  0.0000000E+00 -0.6630540E-04
  0.5707071E+00  0.0000000E+00  0.5050505E-02  0.2820094E-12  0.0000000E+00 -0.6630540E-04
  0.5808081E+00  0.0000000E+00  0.5050505E-02  0.2575438E-12  0.0000000E+00 -0.6630540E-04
  0.5909091E+00  0.0000000E+00  0.5050505E-02  0.2181372E-12  0.0000000E+00 -0.6630540E-04
  0.6010101E+00  0.0000000E+00  0.5050505E-02  0.1639284E-12  0.0000000E+00 -0.6630540E-04
  0.6111111E+00  0.0000000E+00  0.5050505E-02  0.9737641E-13  0.0000000E+00 -0.6630540E-04
  0.6212121E+00  0.0000000E+00  0.5050505E-02  0.2162588E-13  0.0000000E+00 -0.6630540E-04
  0.6313131E+00  0.0000000E+00  0.5050505E-02 -0.6047505E-13  0.0000000E+00 -0.6630540E-04
  0.6414142E+00  0.0000000E+00  0.5050505E-02 -0.1465873E-12  0.0000000E+00 -0.6630540E-04
  0.6515151E+00  0.0000000E+00  0.5050505E-02 -0.2350660E-12  0.0000000E+00 -0.6630540E-04
  0.6616161E+00  0.0000000E+00  0.5050505E-02 -0.3231829E-12  0.0000000E+00 -0.6630540E-04
  0.6717172E+00  0.0000000E+00  0.5050505E-02 -0.4102859E-12  0.0000000E+00 -0.6630540E-04
  0.6818182E+00  0.0000000E+00  0.5050505E-02 -0.4917600E-12  0.0000000E+00 -0.6630540E-04
  0.6919192E+00  0.0000000E+00  0.5050505E-02 -0.5682573E-12  0.0000000E+00 -0.6630540E-04
  0.7020202E+00  0.0000000E+00  0.5050505E-02 -0.6472135E-12  0.0000000E+00 -0.6630540E-04
  0.7121212E+00  0.0000000E+00  0.5050505E-02 -0.7069439E-12  0.0000000E+00 -0.6630541E-04
  0.7222222E+00  0.0000000E+00  0.5050505E-02 -0.7555049E-12  0.0000000E+00 -0.6630541E-04
  0.7323232E+00  0.0000000E+00  0.5050505E-02 -0.7994508E-12  0.0000000E+00 -0.6630541E-04
  0.7424242E+00  0.0000000E+00  0.5050505E-02 -0.8357526E-12  0.0000000E+00 -0.6630541E-04
  0.7525253E+00  0.0000000E+00  0.5050505E-02 -0.8582367E-12  0.0000000E+00 -0.6630541E-04
  0.7626263E+00  0.0000000E+00  0.5050505E-02 -0.8629611E-12  0.0000000E+00 -0.6630541E-04
  0.7727273E+00  0.0000000E+00  0.5050505E-02 -0.8491287E-12  0.0000000E+00 -0.6630542E-04
  0.7828283E+00  0.0000000E+00  0.5050505E-02 -0.8182622E-12  0.0000000E+00 -0.6630542E-04
  0.7929293E+00  0.0000000E+00  0.5050505E-02 -0.7730689E-12  0.0000000E+00 -0.6630542E-04
  0.8030303E+00  0.0000000E+00  0.5050505E-02 -0.7167440E-12  0.0000000E+00 -0.6630542E-04
  0.8131313E+00  0.0000000E+00  0.5050505E-02 -0.6523460E-12  0.0000000E+00 -0.6630542E-04
  0.8232324E+00  0.0000000E+00  0.5050505E-02 -0.5824242E-12  0.0000000E+00 -0.6630542E-04
  0.8333333E+00  0.0000000E+00  0.5050505E-02 -0.5089496E-12  0.0000000E+00 -0.6630542E-04
  0.8434343E+00  0.0000000E+00  0.5050505E-02 -0.4335525E-12  0.0000000E+00 -0.6630542E-04
  0.8535354E+00  0.0000000E+00  0.5050505E-02 -0.3577788E-12  0.0000000E+00 -0.6630543E-04
  0.8636364E+00  0.0000000E+00  0.5050505E-02 -0.2839803E-12  0.0000000E+00 -0.6630543E-04
  0.8737374E+00  0.0000000E+00  0.5050505E-02 -0.2121759E-12  0.0000000E+00 -0.6630543E-04
  0.8838384E+00  0.0000000E+00  0.5050505E-02 -0.1483332E-12  0.0000000E+00 -0.6630543E-04
  0.8939394E+00  0.0000000E+00  0.5050505E-02 -0.9059689E-13  0.0000000E+00 -0.6630543E-04
  0.9040404E+00  0.0000000E+00  0.5050505E-02 -0.3046260E-13  0.0000000E+00 -0.6630543E-04
  0.9141414E+00  0.0000000E+00  0.5050505E-02  0.7837567E-14  0.0000000E+00 -0.6630543E-04
  0.9242424E+00  0.0000000E+00  0.5050505E-02  0.3408269E-13  0.0000000E+00 -0.6630543E-04
  0.9343435E+00  0.0000000E+00  0.5050505E-02  0.5718942E-13  0.0000000E+00 -0.6630543E-04
  0.9444444E+00  0.0000000E+00  0.5050505E-02  0.7601346E-13  0.0000000E+00 -0.6630543E-04
  0.9545454E+00  0.0000000E+00  0.5050505E-02  0.8609334E-13  0.0000000E+00 -0.6630543E-04
  0.9646465E+00  0.0000000E+00  0.5050505E-02  0.8514467E-13  0.0000000E+00 -0.6630543E-04
  0.9747475E+00  0.0000000E+00  0.5050505E-02  0.7407616E-13  0.0000000E+00 -0.6630543E-04
  0.9848485E+00  0.0000000E+00  0.5050505E-02  0.5621761E-13  0.0000000E+00 -0.6630543E-04
  0.9974747E+00  0.0000000E+00  0.5050505E-02  0.3734939E-13  0.0000000E+00 -0.6630543E-04
  0.5050505E-02  0.0000000E+00  0.1515152E-01 -0.2933749E-13  0.0000000E+00 -0.6595261E-04
  0.1515152E-01  0.0000000E+00  0.1515152E-01 -0.2166347E-12  0.0000000E+00 -0.6595261E-04
  0.2525252E-01  0.0000000E+00  0.1515152E-01 -0.4031782E-12  0.0000000E+00 -0.6595261E-04
  0.3535353E-01  0.0000000E+00  0.1515152E-01 -0.5599783E-12  0.0000000E+00 -0.6595261E-04
  0.4545455E-01  0.0000000E+00  0.1515152E-01 -0.7235420E-12  0.0000000E+00 -0.6595261E-04
  0.5555556E-01  0.0000000E+00  0.1515152E-01 -0.8342091E-12  0.0000000E+00 -0.6595261E-04
  0.6565657E-01  0.0000000E+00  0.1515152E-01 -0.9110575E-12  0.0000000E+00 -0.6595261E-04
  0.7575758E-01  0.0000000E+00  0.1515152E-01 -0.9734094E-12  0.0000000E+00 -0.6595261E-04
  0.8585858E-01  0.0000000E+00  0.1515152E-01 -0.1014117E-11  0.0000000E+00 -0.6595261E-04
  0.9595960E-01  0.0000000E+00  0.1515152E-01 -0.1016143E-11  0.0000000E+00 -0.6595261E-04
  0.1060606E+00  0.0000000E+00  0.1515152E-01 -0.9682602E-12  0.0000000E+00 -0.6595261E-04
  0.1161616E+00  0.0000000E+00  0.1515152E-01 -0.8688768E-12  0.0000000E+00 -0.6595261E-04
  0.1262626E+00  0.0000000E+00  0.1515152E-01 -0.7235418E-12  0.0000000E+00 -0.6595261E-04
  0.1363636E+00  0.0000000E+00  0.1515152E-01 -0.5416853E-12  0.0000000E+00 -0.6595261E-04
  0.1464646E+00  0.0000000E+00  0.1515152E-01 -0.3337063E-12  0.0000000E+00 -0.6595261E-04
  0.1565657E+00  0.0000000E+00  0.1515152E-01 -0.1091764E-12  0.0000000E+00 -0.6595261E-04
  0.1666667E+00  0.0000000E+00  0.1515152E-01  0.1244333E-12  0.0000000E+00 -0.6595261E-04
  0.1767677E+00  0.0000000E+00  0.1515152E-01  0.3620158E-12  0.0000000E+00 -0.6595261E-04
  0.1868687E+00  0.0000000E+00  0.1515152E-01  0.6008132E-12  0.0000000E+00 -0.6595261E-04
  0.1969697E+00  0.0000000E+00  0.1515152E-01  0.8355065E-12  0.0000000E+00 -0.6595261E-04
  0.2070707E+00  0.0000000E+00  0.1515152E-01  0.1060334E-11  0.0000000E+00 -0.6595261E-04
  0.2171717E+00  0.0000000E+00  0.1515152E-01  0.1277168E-11  0.0000000E+00 -0.6595261E-04
  0.2272727E+00  0.0000000E+00  0.1515152E-01  0.1476257E-11  0.0000000E+00 -0.6595261E-04
  0.2373737E+00  0.0000000E+00  0.1515152E-01  0.1656802E-11  0.0000000E+00 -0.6595261E-04
  0.2474747E+00  0.0000000E+00  0.1515152E-01  0.1817582E-11  0.0000000E+00 -0.6595261E-04
  0.2575758E+00  0.0000000E+00  0.1515152E-01  0.1942382E-11  0.0000000E+00 -0.6595261E-04
  0.2676768E+00  0.0000000E+00  0.1515152E-01  0.2039065E-11  0.0000000E+00 -0.6595261E-04
  0.2777778E+00  0.0000000E+00  0.1515152E-01  0.2109395E-11  0.0000000E+00 -0.6595260E-04
  0.2878788E+00  0.0000000E+00  0.1515152E-01  0.2145158E-11  0.0000000E+00 -0.6595260E-04
  0.2979798E+00  0.0000000E+00  0.1515152E-01  0.2138727E-11  0.0000000E+00 -0.6595260E-04
  0.3080808E+00  0.0000000E+00  0.1515152E-01  0.2088915E-11  0.0000000E+00 -0.6595260E-04
  0.3181818E+00  0.0000000E+00  0.1515152E-01  0.2001182E-11  0.0000000E+00 -0.6595260E-04
  0.3282828E+00  0.0000000E+00  0.1515152E-01  0.1884872E-11  0.0000000E+00 -0.6595260E-04
  0.3383838E+00  0.0000000E+00  0.1515152E-01  0.1750158E-11  0.0000000E+00 -0.6595260E-04
  0.3484848E+00  0.0000000E+00  0.1515152E-01  0.1605566E-11  0.0000000E+00 -0.6595260E-04
  0.3585859E+00  0.0000000E+00  0.1515152E-01  0.1457540E-11  0.0000000E+00 -0.6595259E-04
  0.3686869E+00  0.0000000E+00  0.1515152E-01  0.1312886E-11  0.0000000E+00 -0.6595259E-04
  0.3787879E+00  0.0000000E+00  0.1515152E-01  0.1177399E-11  0.0000000E+00 -0.6595259E-04
  0.3888889E+00  0.0000000E+00  0.1515152E-01  0.1051080E-11  0.0000000E+00 -0.6595259E-04
  0.3989899E+00  0.0000000E+00  0.1515152E-01  0.9451392E-12  0.0000000E+00 -0.6595259E-04
  0.4090909E+00  0.0000000E+00  0.1515152E-01  0.8591505E-12  0.0000000E+00 -0.6595259E-04
  0.4191919E+00  0.0000000E+00  0.1515152E-01  0.7641318E-12  0.0000000E+00 -0.6595259E-04
  0.4292929E+00  0.0000000E+00  0.1515152E-01  0.7117722E-12  0.0000000E+00 -0.6595259E-04
  0.4393939E+00  0.0000000E+00  0.1515152E-01  0.6835121E-12  0.0000000E+00 -0.6595259E-04
  0.4494950E+00  0.0000000E+00  0.1515152E-01  0.6513535E-12  0.0000000E+00 -0.6595259E-04
  0.4595959E+00  0.0000000E+00  0.1515152E-01  0.6170391E-12  0.0000000E+00 -0.6595259E-04
  0.4696970E+00  0.0000000E+00  0.1515152E-01  0.5971019E-12  0.0000000E+00 -0.6595259E-04
  0.4797980E+00  0.0000000E+00  0.1515152E-01  0.6024508E-12  0.0000000E+00 -0.6595259E-04
  0.4898990E+00  0.0000000E+00  0.1515152E-01  0.6331272E-12  0.0000000E+00 -0.6595259E-04
  0.5000000E+00  0.0000000E+00  0.1515152E-01  0.6891193E-12  0.0000000E+00 -0.6595259E-04
  0.5101010E+00  0.0000000E+00  0.1515152E-01  0.7497341E-12  0.0000000E+00 -0.6595259E-04
  0.5202020E+00  0.0000000E+00  0.1515152E-01  0.8065457E-12  0.0000000E+00 -0.6595259E-04
  0.5303030E+00  0.0000000E+00  0.1515152E-01  0.8813554E-12  0.0000000E+00 -0.6595258E-04
  0.5404040E+00  0.0000000E+00  0.1515152E-01  0.9078803E-12  0.0000000E+00 -0.6595258E-04
  0.5505050E+00  0.0000000E+00  0.1515152E-01  0.9016957E-12  0.0000000E+00 -0.6595258E-04
  0.5606061E+00  0.0000000E+00  0.1515152E-01  0.8809951E-12  0.0000000E+00 -0.6595258E-04
  0.5707071E+00  0.0000000E+00  0.1515152E-01  0.8398242E-12  0.0000000E+00 -0.6595258E-04
  0.5808081E+00  0.0000000E+00  0.1515152E-01  0.7633972E-12  0.0000000E+00 -0.6595258E-04
  0.5909091E+00  0.0000000E+00  0.1515152E-01  0.6431296E-12  0.0000000E+00 -0.6595258E-04
  0.6010101E+00  0.0000000E+00  0.1515152E-01  0.4796489E-12  0.0000000E+00 -0.6595258E-04
  0.6111111E+00  0.0000000E+00  0.1515152E-01  0.2800672E-12  0.0000000E+00 -0.6595258E-04
  0.6212121E+00  0.0000000E+00  0.1515152E-01  0.5350639E-13  0.0000000E+00 -0.6595258E-04
  0.6313131E+00  0.0000000E+00  0.1515152E-01 -0.1921008E-12  0.0000000E+00 -0.6595258E-04
  0.6414142E+00  0.0000000E+00  0.1515152E-01 -0.4503137E-12  0.0000000E+00 -0.6595258E-04
  0.6515151E+00  0.0000000E+00  0.1515152E-01 -0.7145443E-12  0.0000000E+00 -0.6595258E-04
  0.6616161E+00  0.0000000E+00  0.1515152E-01 -0.9781298E-12  0.0000000E+00 -0.6595258E-04
  0.6717172E+00  0.0000000E+00  0.1515152E-01 -0.1239268E-11  0.0000000E+00 -0.6595258E-04
  0.6818182E+00  0.0000000E+00  0.1515152E-01 -0.1484965E-11  0.0000000E+00 -0.6595258E-04
  0.6919192E+00  0.0000000E+00  0.1515152E-01 -0.1711695E-11  0.0000000E+00 -0.6595258E-04
  0.7020202E+00  0.0000000E+00  0.1515152E-01 -0.1944718E-11  0.0000000E+00 -0.6595259E-04
  0.7121212E+00  0.0000000E+00  0.1515152E-01 -0.2126516E-11  0.0000000E+00 -0.6595259E-04
  0.7222222E+00  0.0000000E+00  0.1515152E-01 -0.2274980E-11  0.0000000E+00 -0.6595259E-04
  0.7323232E+00  0.0000000E+00  0.1515152E-01 -0.2406680E-11  0.0000000E+00 -0.6595259E-04
  0.7424242E+00  0.0000000E+00  0.1515152E-01 -0.2513629E-11  0.0000000E+00 -0.6595259E-04
  0.7525253E+00  0.0000000E+00  0.1515152E-01 -0.2578975E-11  0.0000000E+00 -0.6595259E-04
  0.7626263E+00  0.0000000E+00  0.1515152E-01 -0.2591615E-11  0.0000000E+00 -0.6595260E-04
  0.7727273E+00  0.0000000E+00  0.1515152E-01 -0.2549289E-11  0.0000000E+00 -0.6595260E-04
  0.7828283E+00  0.0000000E+00  0.1515152E-01 -0.2456469E-11  0.0000000E+00 -0.6595260E-04
  0.7929293E+00  0.0000000E+00  0.1515152E-01 -0.2321099E-11  0.0000000E+00 -0.6595260E-04
  0.8030303E+00  0.0000000E+00  0.1515152E-01 -0.2152572E-11  0.0000000E+00 -0.6595260E-04
  0.8131313E+00  0.0000000E+00  0.1515152E-01 -0.1960045E-11  0.0000000E+00 -0.6595260E-04
  0.8232324E+00  0.0000000E+00  0.1515152E-01 -0.1751096E-11  0.0000000E+00 -0.6595260E-04
  0.8333333E+00  0.0000000E+00  0.1515152E-01 -0.1531272E-11  0.0000000E+00 -0.6595261E-04
  0.8434343E+00  0.0000000E+00  0.1515152E-01 -0.1305033E-11  0.0000000E+00 -0.6595261E-04
  0.8535354E+00  0.0000000E+00  0.1515152E-01 -0.1078508E-11  0.0000000E+00 -0.6595261E-04
  0.8636364E+00  0.0000000E+00  0.1515152E-01 -0.8582122E-12  0.0000000E+00 -0.6595261E-04
  0.8737374E+00  0.0000000E+00  0.1515152E-01 -0.6430163E-12  0.0000000E+00 -0.6595261E-04
  0.8838384E+00  0.0000000E+00  0.1515152E-01 -0.4488862E-12  0.0000000E+00 -0.6595261E-04
  0.8939394E+00  0.0000000E+00  0.1515152E-01 -0.2784528E-12  0.0000000E+00 -0.6595261E-04
  0.9040404E+00  0.0000000E+00  0.1515152E-01 -0.1031119E-12  0.0000000E+00 -0.6595261E-04
  0.9141414E+00  0.0000000E+00  0.1515152E-01  0.1434940E-13  0.0000000E+00 -0.6595261E-04
  0.9242424E+00  0.0000000E+00  0.1515152E-01  0.9661534E-13  0.0000000E+00 -0.6595261E-04
  0.9343435E+00  0.0000000E+00  0.1515152E-01  0.1666284E-12  0.0000000E+00 -0.6595261E-04
  0.9444444E+00  0.0000000E+00  0.1515152E-01  0.2219441E-12  0.0000000E+00 -0.6595261E-04
  0.9545454E+00  0.0000000E+00  0.1515152E-01  0.2511895E-12  0.0000000E+00 -0.6595261E-04
  0.9646465E+00  0.0000000E+00  0.1515152E-01  0.2482746E-12  0.0000000E+00 -0.6595261E-04
  0.9747475E+00  0.0000000E+00  0.1515152E-01  0.2150257E-12  0.0000000E+00 -0.6595261E-04
  0.9848485E+00  0.0000000E+00  0.1515152E-01  0.1590243E-12  0.0000000E+00 -0.6595261E-04
  0.9974747E+00  0.0000000E+00  0.1515152E-01  0.9378883E-13  0.0000000E+00 -0.6595261E-04
  0.5050505E-02  0.0000000E+00  0.2525252E-01 -0.7335745E-13  0.0000000E+00 -0.6525389E-04
  0.1515152E-01  0.0000000E+00  0.2525252E-01 -0.3675277E-12  0.0000000E+00 -0.6525389E-04
  0.2525252E-01  0.0000000E+00  0.2525252E-01 -0.6712669E-12  0.0000000E+00 -0.6525389E-04
  0.3535353E-01  0.0000000E+00  0.2525252E-01 -0.9252789E-12  0.0000000E+00 -0.6525389E-04
  0.4545455E-01  0.0000000E+00  0.2525252E-01 -0.1186460E-11  0.0000000E+00 -0.6525389E-04
  0.5555556E-01  0.0000000E+00  0.2525252E-01 -0.1370880E-11  0.0000000E+00 -0.6525389E-04
  0.6565657E-01  0.0000000E+00  0.2525252E-01 -0.1500919E-11  0.0000000E+00 -0.6525389E-04
  0.7575758E-01  0.0000000E+00  0.2525252E-01 -0.1602109E-11  0.0000000E+00 -0.6525389E-04
  0.8585858E-01  0.0000000E+00  0.2525252E-01 -0.1663872E-11  0.0000000E+00 -0.6525389E-04
  0.9595960E-01  0.0000000E+00  0.2525252E-01 -0.1661036E-11  0.0000000E+00 -0.6525389E-04
  0.1060606E+00  0.0000000E+00  0.2525252E-01 -0.1576513E-11  0.0000000E+00 -0.6525389E-04
  0.1161616E+00  0.0000000E+00  0.2525252E-01 -0.1407958E-11  0.0000000E+00 -0.6525389E-04
  0.1262626E+00  0.0000000E+00  0.2525252E-01 -0.1164530E-11  0.0000000E+00 -0.6525389E-04
  0.1363636E+00  0.0000000E+00  0.2525252E-01 -0.8617805E-12  0.0000000E+00 -0.6525389E-04
  0.1464646E+00  0.0000000E+00  0.2525252E-01 -0.5168405E-12  0.0000000E+00 -0.6525389E-04
  0.1565657E+00  0.0000000E+00  0.2525252E-01 -0.1451847E-12  0.0000000E+00 -0.6525389E-04
  0.1666667E+00  0.0000000E+00  0.2525252E-01  0.2414718E-12  0.0000000E+00 -0.6525389E-04
  0.1767677E+00  0.0000000E+00  0.2525252E-01  0.6355492E-12  0.0000000E+00 -0.6525389E-04
  0.1868687E+00  0.0000000E+00  0.2525252E-01  0.1033259E-11  0.0000000E+00 -0.6525389E-04
  0.1969697E+00  0.0000000E+00  0.2525252E-01  0.1424373E-11  0.0000000E+00 -0.6525389E-04
  0.2070707E+00  0.0000000E+00  0.2525252E-01  0.1797519E-11  0.0000000E+00 -0.6525389E-04
  0.2171717E+00  0.0000000E+00  0.2525252E-01  0.2153918E-11  0.0000000E+00 -0.6525389E-04
  0.2272727E+00  0.0000000E+00  0.2525252E-01  0.2484158E-11  0.0000000E+00 -0.6525389E-04
  0.2373737E+00  0.0000000E+00  0.2525252E-01  0.2795538E-11  0.0000000E+00 -0.6525389E-04
  0.2474747E+00  0.0000000E+00  0.2525252E-01  0.3055131E-11  0.0000000E+00 -0.6525389E-04
  0.2575758E+00  0.0000000E+00  0.2525252E-01  0.3258748E-11  0.0000000E+00 -0.6525389E-04
  0.2676768E+00  0.0000000E+00  0.2525252E-01  0.3420633E-11  0.0000000E+00 -0.6525388E-04
  0.2777778E+00  0.0000000E+00  0.2525252E-01  0.3538459E-11  0.0000000E+00 -0.6525388E-04
  0.2878788E+00  0.0000000E+00  0.2525252E-01  0.3596890E-11  0.0000000E+00 -0.6525388E-04
  0.2979798E+00  0.0000000E+00  0.2525252E-01  0.3584241E-11  0.0000000E+00 -0.6525388E-04
  0.3080808E+00  0.0000000E+00  0.2525252E-01  0.3500139E-11  0.0000000E+00 -0.6525388E-04
  0.3181818E+00  0.0000000E+00  0.2525252E-01  0.3354417E-11  0.0000000E+00 -0.6525388E-04
  0.3282828E+00  0.0000000E+00  0.2525252E-01  0.3162268E-11  0.0000000E+00 -0.6525388E-04
  0.3383838E+00  0.0000000E+00  0.2525252E-01  0.2939799E-11  0.0000000E+00 -0.6525387E-04
  0.3484848E+00  0.0000000E+00  0.2525252E-01  0.2700439E-11  0.0000000E+00 -0.6525387E-04
  0.3585859E+00  0.0000000E+00  0.2525252E-01  0.2453997E-11  0.0000000E+00 -0.6525387E-04
  0.3686869E+00  0.0000000E+00  0.2525252E-01  0.2214481E-11  0.0000000E+00 -0.6525387E-04
  0.3787879E+00  0.0000000E+00  0.2525252E-01  0.1992550E-11  0.0000000E+00 -0.6525387E-04
  0.3888889E+00  0.0000000E+00  0.2525252E-01  0.1785493E-11  0.0000000E+00 -0.6525387E-04
  0.3989899E+00  0.0000000E+00  0.2525252E-01  0.1607824E-11  0.0000000E+00 -0.6525387E-04
  0.4090909E+00  0.0000000E+00  0.2525252E-01  0.1467368E-11  0.0000000E+00 -0.6525387E-04
  0.4191919E+00  0.0000000E+00  0.2525252E-01  0.1314410E-11  0.0000000E+00 -0.6525387E-04
  0.4292929E+00  0.0000000E+00  0.2525252E-01  0.1218009E-11  0.0000000E+00 -0.6525387E-04
  0.4393939E+00  0.0000000E+00  0.2525252E-01  0.1163212E-11  0.0000000E+00 -0.6525387E-04
  0.4494950E+00  0.0000000E+00  0.2525252E-01  0.1109507E-11  0.0000000E+00 -0.6525387E-04
  0.4595959E+00  0.0000000E+00  0.2525252E-01  0.1054717E-11  0.0000000E+00 -0.6525387E-04
  0.4696970E+00  0.0000000E+00  0.2525252E-01  0.1022427E-11  0.0000000E+00 -0.6525387E-04
  0.4797980E+00  0.0000000E+00  0.2525252E-01  0.1028254E-11  0.0000000E+00 -0.6525387E-04
  0.4898990E+00  0.0000000E+00  0.2525252E-01  0.1071758E-11  0.0000000E+00 -0.6525386E-04
  0.5000000E+00  0.0000000E+00  0.2525252E-01  0.1156380E-11  0.0000000E+00 -0.6525386E-04
  0.5101010E+00  0.0000000E+00  0.2525252E-01  0.1255147E-11  0.0000000E+00 -0.6525386E-04
  0.5202020E+00  0.0000000E+00  0.2525252E-01  0.1343090E-11  0.0000000E+00 -0.6525386E-04
  0.5303030E+00  0.0000000E+00  0.2525252E-01  0.1456460E-11  0.0000000E+00 -0.6525386E-04
  0.5404040E+00  0.0000000E+00  0.2525252E-01  0.1500743E-11  0.0000000E+00 -0.6525386E-04
  0.5505050E+00  0.0000000E+00  0.2525252E-01  0.1491426E-11  0.0000000E+00 -0.6525386E-04
  0.5606061E+00  0.0000000E+00  0.2525252E-01  0.1452419E-11  0.0000000E+00 -0.6525386E-04
  0.5707071E+00  0.0000000E+00  0.2525252E-01  0.1375901E-11  0.0000000E+00 -0.6525386E-04
  0.5808081E+00  0.0000000E+00  0.2525252E-01  0.1241113E-11  0.0000000E+00 -0.6525386E-04
  0.5909091E+00  0.0000000E+00  0.2525252E-01  0.1035809E-11  0.0000000E+00 -0.6525386E-04
  0.6010101E+00  0.0000000E+00  0.2525252E-01  0.7613597E-12  0.0000000E+00 -0.6525386E-04
  0.6111111E+00  0.0000000E+00  0.2525252E-01  0.4288460E-12  0.0000000E+00 -0.6525386E-04
  0.6212121E+00  0.0000000E+00  0.2525252E-01  0.5258662E-13  0.0000000E+00 -0.6525386E-04
  0.6313131E+00  0.0000000E+00  0.2525252E-01 -0.3552284E-12  0.0000000E+00 -0.6525386E-04
  0.6414142E+00  0.0000000E+00  0.2525252E-01 -0.7852640E-12  0.0000000E+00 -0.6525386E-04
  0.6515151E+00  0.0000000E+00  0.2525252E-01 -0.1224444E-11  0.0000000E+00 -0.6525386E-04
  0.6616161E+00  0.0000000E+00  0.2525252E-01 -0.1660127E-11  0.0000000E+00 -0.6525386E-04
  0.6717172E+00  0.0000000E+00  0.2525252E-01 -0.2092189E-11  0.0000000E+00 -0.6525386E-04
  0.6818182E+00  0.0000000E+00  0.2525252E-01 -0.2502898E-11  0.0000000E+00 -0.6525386E-04
  0.6919192E+00  0.0000000E+00  0.2525252E-01 -0.2878015E-11  0.0000000E+00 -0.6525386E-04
  0.7020202E+00  0.0000000E+00  0.2525252E-01 -0.3260352E-11  0.0000000E+00 -0.6525386E-04
  0.7121212E+00  0.0000000E+00  0.2525252E-01 -0.3566758E-11  0.0000000E+00 -0.6525387E-04
  0.7222222E+00  0.0000000E+00  0.2525252E-01 -0.3817499E-11  0.0000000E+00 -0.6525387E-04
  0.7323232E+00  0.0000000E+00  0.2525252E-01 -0.4035283E-11  0.0000000E+00 -0.6525387E-04
  0.7424242E+00  0.0000000E+00  0.2525252E-01 -0.4208930E-11  0.0000000E+00 -0.6525387E-04
  0.7525253E+00  0.0000000E+00  0.2525252E-01 -0.4313368E-11  0.0000000E+00 -0.6525387E-04
  0.7626263E+00  0.0000000E+00  0.2525252E-01 -0.4331240E-11  0.0000000E+00 -0.6525387E-04
  0.7727273E+00  0.0000000E+00  0.2525252E-01 -0.4258855E-11  0.0000000E+00 -0.6525388E-04
  0.7828283E+00  0.0000000E+00  0.2525252E-01 -0.4103598E-11  0.0000000E+00 -0.6525388E-04
  0.7929293E+00  0.0000000E+00  0.2525252E-01 -0.3878618E-11  0.0000000E+00 -0.6525388E-04
  0.8030303E+00  0.0000000E+00  0.2525252E-01 -0.3599207E-11  0.0000000E+00 -0.6525388E-04
  0.8131313E+00  0.0000000E+00  0.2525252E-01 -0.3280251E-11  0.0000000E+00 -0.6525388E-04
  0.8232324E+00  0.0000000E+00  0.2525252E-01 -0.2933988E-11  0.0000000E+00 -0.6525388E-04
  0.8333333E+00  0.0000000E+00  0.2525252E-01 -0.2569123E-11  0.0000000E+00 -0.6525388E-04
  0.8434343E+00  0.0000000E+00  0.2525252E-01 -0.2192207E-11  0.0000000E+00 -0.6525389E-04
  0.8535354E+00  0.0000000E+00  0.2525252E-01 -0.1815420E-11  0.0000000E+00 -0.6525389E-04
  0.8636364E+00  0.0000000E+00  0.2525252E-01 -0.1451580E-11  0.0000000E+00 -0.6525389E-04
  0.8737374E+00  0.0000000E+00  0.2525252E-01 -0.1096066E-11  0.0000000E+00 -0.6525389E-04
  0.8838384E+00  0.0000000E+00  0.2525252E-01 -0.7696371E-12  0.0000000E+00 -0.6525389E-04
  0.8939394E+00  0.0000000E+00  0.2525252E-01 -0.4878554E-12  0.0000000E+00 -0.6525389E-04
  0.9040404E+00  0.0000000E+00  0.2525252E-01 -0.2032752E-12  0.0000000E+00 -0.6525389E-04
  0.9141414E+00  0.0000000E+00  0.2525252E-01 -0.3884777E-14  0.0000000E+00 -0.6525389E-04
  0.9242424E+00  0.0000000E+00  0.2525252E-01  0.1384600E-12  0.0000000E+00 -0.6525389E-04
  0.9343435E+00  0.0000000E+00  0.2525252E-01  0.2562792E-12  0.0000000E+00 -0.6525389E-04
  0.9444444E+00  0.0000000E+00  0.2525252E-01  0.3471422E-12  0.0000000E+00 -0.6525389E-04
  0.9545454E+00  0.0000000E+00  0.2525252E-01  0.3952665E-12  0.0000000E+00 -0.6525389E-04
  0.9646465E+00  0.0000000E+00  0.2525252E-01  0.3916026E-12  0.0000000E+00 -0.6525389E-04
  0.9747475E+00  0.0000000E+00  0.2525252E-01  0.3375885E-12  0.0000000E+00 -0.6525389E-04
  0.9848485E+00  0.0000000E+00  0.2525252E-01  0.2416555E-12  0.0000000E+00 -0.6525389E-04
  0.9974747E+00  0.0000000E+00  0.2525252E-01  0.1222931E-12  0.0000000E+00 -0.6525389E-04
  0.5050505E-02  0.0000000E+00  0.3535353E-01 -0.1224854E-12  0.0000000E+00 -0.6421953E-04
  0.1515152E-01  0.0000000E+00  0.3535353E-01 -0.5169438E-12  0.0000000E+00 -0.6421953E-04
  0.2525252E-01  0.0000000E+00  0.3535353E-01 -0.9280036E-12  0.0000000E+00 -0.6421953E-04
  0.3535353E-01  0.0000000E+00  0.3535353E-01 -0.1275079E-11  0.0000000E+00 -0.6421953E-04
  0.4545455E-01  0.0000000E+00  0.3535353E-01 -0.1627579E-11  0.0000000E+00 -0.6421953E-04
  0.5555556E-01  0.0000000E+00  0.3535353E-01 -0.1880411E-11  0.0000000E+00 -0.6421953E-04
  0.6565657E-01  0.0000000E+00  0.3535353E-01 -0.2058445E-11  0.0000000E+00 -0.6421953E-04
  0.7575758E-01  0.0000000E+00  0.3535353E-01 -0.2192433E-11  0.0000000E+00 -0.6421953E-04
  0.8585858E-01  0.0000000E+00  0.3535353E-01 -0.2268921E-11  0.0000000E+00 -0.6421953E-04
  0.9595960E-01  0.0000000E+00  0.3535353E-01 -0.2255681E-11  0.0000000E+00 -0.6421954E-04
  0.1060606E+00  0.0000000E+00  0.3535353E-01 -0.2130319E-11  0.0000000E+00 -0.6421954E-04
  0.1161616E+00  0.0000000E+00  0.3535353E-01 -0.1889867E-11  0.0000000E+00 -0.6421954E-04
  0.1262626E+00  0.0000000E+00  0.3535353E-01 -0.1547234E-11  0.0000000E+00 -0.6421954E-04
  0.1363636E+00  0.0000000E+00  0.3535353E-01 -0.1124257E-11  0.0000000E+00 -0.6421954E-04
  0.1464646E+00  0.0000000E+00  0.3535353E-01 -0.6445332E-12  0.0000000E+00 -0.6421954E-04
  0.1565657E+00  0.0000000E+00  0.3535353E-01 -0.1284339E-12  0.0000000E+00 -0.6421954E-04
  0.1666667E+00  0.0000000E+00  0.3535353E-01  0.4094425E-12  0.0000000E+00 -0.6421954E-04
  0.1767677E+00  0.0000000E+00  0.3535353E-01  0.9592356E-12  0.0000000E+00 -0.6421954E-04
  0.1868687E+00  0.0000000E+00  0.3535353E-01  0.1513438E-11  0.0000000E+00 -0.6421954E-04
  0.1969697E+00  0.0000000E+00  0.3535353E-01  0.2060339E-11  0.0000000E+00 -0.6421954E-04
  0.2070707E+00  0.0000000E+00  0.3535353E-01  0.2582054E-11  0.0000000E+00 -0.6421953E-04
  0.2171717E+00  0.0000000E+00  0.3535353E-01  0.3075303E-11  0.0000000E+00 -0.6421953E-04
  0.2272727E+00  0.0000000E+00  0.3535353E-01  0.3524937E-11  0.0000000E+00 -0.6421953E-04
  0.2373737E+00  0.0000000E+00  0.3535353E-01  0.3977129E-11  0.0000000E+00 -0.6421953E-04
  0.2474747E+00  0.0000000E+00  0.3535353E-01  0.4336529E-11  0.0000000E+00 -0.6421953E-04
  0.2575758E+00  0.0000000E+00  0.3535353E-01  0.4614367E-11  0.0000000E+00 -0.6421953E-04
  0.2676768E+00  0.0000000E+00  0.3535353E-01  0.4837654E-11  0.0000000E+00 -0.6421953E-04
  0.2777778E+00  0.0000000E+00  0.3535353E-01  0.5001179E-11  0.0000000E+00 -0.6421953E-04
  0.2878788E+00  0.0000000E+00  0.3535353E-01  0.5081706E-11  0.0000000E+00 -0.6421952E-04
  0.2979798E+00  0.0000000E+00  0.3535353E-01  0.5062864E-11  0.0000000E+00 -0.6421952E-04