title = "dataset water"
variables = "x", "y", "z", "vx", "vy", "vz"
zone t = "velocities, solution time =  4.700E+01 days        " i =   99, j =   99, k =    1,  f=point
  0.5050505E-02  0.0000000E+00  0.5050505E-02  0.8760929E-07  0.0000000E+00  0.9376869E-04
  0.1515152E-01  0.0000000E+00  0.5050505E-02  0.2633436E-06  0.0000000E+00  0.9412473E-04
  0.2525252E-01  0.0000000E+00  0.5050505E-02  0.4406395E-06  0.0000000E+00  0.9483894E-04
  0.3535353E-01  0.0000000E+00  0.5050505E-02  0.6205707E-06  0.0000000E+00  0.9591567E-04
  0.4545455E-01  0.0000000E+00  0.5050505E-02  0.8042530E-06  0.0000000E+00  0.9736152E-04
  0.5555556E-01  0.0000000E+00  0.5050505E-02  0.9928601E-06  0.0000000E+00  0.9918548E-04
  0.6565657E-01  0.0000000E+00  0.5050505E-02  0.1187642E-05  0.0000000E+00  0.1013991E-03
  0.7575758E-01  0.0000000E+00  0.5050505E-02  0.1389943E-05  0.0000000E+00  0.1040164E-03
  0.8585858E-01  0.0000000E+00  0.5050505E-02  0.1601232E-05  0.0000000E+00  0.1070548E-03
  0.9595960E-01  0.0000000E+00  0.5050505E-02  0.1823120E-05  0.0000000E+00  0.1105344E-03
  0.1060606E+00  0.0000000E+00  0.5050505E-02  0.2057402E-05  0.0000000E+00  0.1144792E-03
  0.1161616E+00  0.0000000E+00  0.5050505E-02  0.2306089E-05  0.0000000E+00  0.1189172E-03
  0.1262626E+00  0.0000000E+00  0.5050505E-02  0.2571462E-05  0.0000000E+00  0.1238806E-03
  0.1363636E+00  0.0000000E+00  0.5050505E-02  0.2856124E-05  0.0000000E+00  0.1294072E-03
  0.1464646E+00  0.0000000E+00  0.5050505E-02  0.3163076E-05  0.0000000E+00  0.1355403E-03
  0.1565657E+00  0.0000000E+00  0.5050505E-02  0.3495813E-05  0.0000000E+00  0.1423302E-03
  0.1666667E+00  0.0000000E+00  0.5050505E-02  0.3858436E-05  0.0000000E+00  0.1498354E-03
  0.1767677E+00  0.0000000E+00  0.5050505E-02  0.4255812E-05  0.0000000E+00  0.1581238E-03
  0.1868687E+00  0.0000000E+00  0.5050505E-02  0.4693775E-05  0.0000000E+00  0.1672747E-03
  0.1969697E+00  0.0000000E+00  0.5050505E-02  0.5179404E-05  0.0000000E+00  0.1773813E-03
  0.2070707E+00  0.0000000E+00  0.5050505E-02  0.5721389E-05  0.0000000E+00  0.1885535E-03
  0.2171717E+00  0.0000000E+00  0.5050505E-02  0.6330556E-05  0.0000000E+00  0.2009224E-03
  0.2272727E+00  0.0000000E+00  0.5050505E-02  0.7020600E-05  0.0000000E+00  0.2146453E-03
  0.2373737E+00  0.0000000E+00  0.5050505E-02  0.7809156E-05  0.0000000E+00  0.2299135E-03
  0.2474747E+00  0.0000000E+00  0.5050505E-02  0.8719394E-05  0.0000000E+00  0.2469624E-03
  0.2575758E+00  0.0000000E+00  0.5050505E-02  0.9782471E-05  0.0000000E+00  0.2660865E-03
  0.2676768E+00  0.0000000E+00  0.5050505E-02  0.1104144E-04  0.0000000E+00  0.2876608E-03
  0.2777778E+00  0.0000000E+00  0.5050505E-02  0.1255770E-04  0.0000000E+00  0.3121748E-03
  0.2878788E+00  0.0000000E+00  0.5050505E-02  0.1442226E-04  0.0000000E+00  0.3402844E-03
  0.2979798E+00  0.0000000E+00  0.5050505E-02  0.1677663E-04  0.0000000E+00  0.3729012E-03
  0.3080808E+00  0.0000000E+00  0.5050505E-02  0.1985567E-04  0.0000000E+00  0.4113509E-03
  0.3181818E+00  0.0000000E+00  0.5050505E-02  0.2408775E-04  0.0000000E+00  0.4576917E-03
  0.3282828E+00  0.0000000E+00  0.5050505E-02  0.3037126E-04  0.0000000E+00  0.5154495E-03
  0.3383838E+00  0.0000000E+00  0.5050505E-02  0.4097777E-04  0.0000000E+00  0.5916640E-03
  0.3484848E+00  0.0000000E+00  0.5050505E-02  0.6293896E-04  0.0000000E+00  0.7037450E-03
  0.3585859E+00  0.0000000E+00  0.5050505E-02  0.7223789E-04  0.0000000E+00  0.8514252E-03
  0.3686869E+00  0.0000000E+00  0.5050505E-02  0.1164321E-03  0.0000000E+00  0.1061537E-02
  0.3787879E+00  0.0000000E+00  0.5050505E-02  0.1377484E-03  0.0000000E+00  0.1351449E-02
  0.3888889E+00  0.0000000E+00  0.5050505E-02  0.8026728E-05  0.0000000E+00  0.1520398E-02
  0.3989899E+00  0.0000000E+00  0.5050505E-02 -0.1180788E-04  0.0000000E+00  0.1515875E-02
  0.4090909E+00  0.0000000E+00  0.5050505E-02 -0.6322900E-04  0.0000000E+00  0.1427210E-02
  0.4191919E+00  0.0000000E+00  0.5050505E-02 -0.2427162E-04  0.0000000E+00  0.1324289E-02
  0.4292929E+00  0.0000000E+00  0.5050505E-02  0.1578395E-05  0.0000000E+00  0.1297724E-02
  0.4393939E+00  0.0000000E+00  0.5050505E-02 -0.2132594E-04  0.0000000E+00  0.1274740E-02
  0.4494950E+00  0.0000000E+00  0.5050505E-02 -0.1077423E-04  0.0000000E+00  0.1237400E-02
  0.4595959E+00  0.0000000E+00  0.5050505E-02 -0.1031261E-04  0.0000000E+00  0.1212951E-02
  0.4696970E+00  0.0000000E+00  0.5050505E-02 -0.9322181E-05  0.0000000E+00  0.1190246E-02
  0.4797980E+00  0.0000000E+00  0.5050505E-02 -0.8792509E-05  0.0000000E+00  0.1169350E-02
  0.4898990E+00  0.0000000E+00  0.5050505E-02 -0.7868055E-05  0.0000000E+00  0.1150174E-02
  0.5000000E+00  0.0000000E+00  0.5050505E-02 -0.3564499E-06  0.0000000E+00  0.1140718E-02
  0.5101010E+00  0.0000000E+00  0.5050505E-02 -0.4517444E-04  0.0000000E+00  0.1088998E-02
  0.5202020E+00  0.0000000E+00  0.5050505E-02 -0.3399268E-04  0.0000000E+00  0.9994227E-03
  0.5303030E+00  0.0000000E+00  0.5050505E-02 -0.2819286E-04  0.0000000E+00  0.9296580E-03
  0.5404040E+00  0.0000000E+00  0.5050505E-02 -0.2549125E-04  0.0000000E+00  0.8698654E-03
  0.5505050E+00  0.0000000E+00  0.5050505E-02 -0.2481257E-04  0.0000000E+00  0.8142126E-03
  0.5606061E+00  0.0000000E+00  0.5050505E-02 -0.2483273E-04  0.0000000E+00  0.7596451E-03
  0.5707071E+00  0.0000000E+00  0.5050505E-02 -0.2389617E-04  0.0000000E+00  0.7064196E-03
  0.5808081E+00  0.0000000E+00  0.5050505E-02 -0.2222317E-04  0.0000000E+00  0.6563418E-03
  0.5909091E+00  0.0000000E+00  0.5050505E-02 -0.2029367E-04  0.0000000E+00  0.6104275E-03
  0.6010101E+00  0.0000000E+00  0.5050505E-02 -0.1840446E-04  0.0000000E+00  0.5688444E-03
  0.6111111E+00  0.0000000E+00  0.5050505E-02 -0.1668242E-04  0.0000000E+00  0.5313113E-03
  0.6212121E+00  0.0000000E+00  0.5050505E-02 -0.1516079E-04  0.0000000E+00  0.4973868E-03
  0.6313131E+00  0.0000000E+00  0.5050505E-02 -0.1383130E-04  0.0000000E+00  0.4666140E-03
  0.6414142E+00  0.0000000E+00  0.5050505E-02 -0.1267082E-04  0.0000000E+00  0.4385791E-03
  0.6515151E+00  0.0000000E+00  0.5050505E-02 -0.1165345E-04  0.0000000E+00  0.4129276E-03
  0.6616161E+00  0.0000000E+00  0.5050505E-02 -0.1075528E-04  0.0000000E+00  0.3893633E-03
  0.6717172E+00  0.0000000E+00  0.5050505E-02 -0.9955976E-05  0.0000000E+00  0.3676411E-03
  0.6818182E+00  0.0000000E+00  0.5050505E-02 -0.9238966E-05  0.0000000E+00  0.3475581E-03
  0.6919192E+00  0.0000000E+00  0.5050505E-02 -0.8590969E-05  0.0000000E+00  0.3289452E-03
  0.7020202E+00  0.0000000E+00  0.5050505E-02 -0.8001412E-05  0.0000000E+00  0.3116605E-03
  0.7121212E+00  0.0000000E+00  0.5050505E-02 -0.7461832E-05  0.0000000E+00  0.2955833E-03
  0.7222222E+00  0.0000000E+00  0.5050505E-02 -0.6965380E-05  0.0000000E+00  0.2806105E-03
  0.7323232E+00  0.0000000E+00  0.5050505E-02 -0.6506433E-05  0.0000000E+00  0.2666529E-03
  0.7424242E+00  0.0000000E+00  0.5050505E-02 -0.6080308E-05  0.0000000E+00  0.2536329E-03
  0.7525253E+00  0.0000000E+00  0.5050505E-02 -0.5683055E-05  0.0000000E+00  0.2414825E-03
  0.7626263E+00  0.0000000E+00  0.5050505E-02 -0.5311313E-05  0.0000000E+00  0.2301420E-03
  0.7727273E+00  0.0000000E+00  0.5050505E-02 -0.4962204E-05  0.0000000E+00  0.2195587E-03
  0.7828283E+00  0.0000000E+00  0.5050505E-02 -0.4633257E-05  0.0000000E+00  0.2096858E-03
  0.7929293E+00  0.0000000E+00  0.5050505E-02 -0.4322336E-05  0.0000000E+00  0.2004815E-03
  0.8030303E+00  0.0000000E+00  0.5050505E-02 -0.4027596E-05  0.0000000E+00  0.1919086E-03
  0.8131313E+00  0.0000000E+00  0.5050505E-02 -0.3747433E-05  0.0000000E+00  0.1839338E-03
  0.8232324E+00  0.0000000E+00  0.5050505E-02 -0.3480443E-05  0.0000000E+00  0.1765268E-03
  0.8333333E+00  0.0000000E+00  0.5050505E-02 -0.3225391E-05  0.0000000E+00  0.1696606E-03
  0.8434343E+00  0.0000000E+00  0.5050505E-02 -0.2981177E-05  0.0000000E+00  0.1633105E-03
  0.8535354E+00  0.0000000E+00  0.5050505E-02 -0.2746814E-05  0.0000000E+00  0.1574542E-03
  0.8636364E+00  0.0000000E+00  0.5050505E-02 -0.2521401E-05  0.0000000E+00  0.1520715E-03
  0.8737374E+00  0.0000000E+00  0.5050505E-02 -0.2304113E-05  0.0000000E+00  0.1471440E-03
  0.8838384E+00  0.0000000E+00  0.5050505E-02 -0.2094183E-05  0.0000000E+00  0.1426553E-03
  0.8939394E+00  0.0000000E+00  0.5050505E-02 -0.1890889E-05  0.0000000E+00  0.1385903E-03
  0.9040404E+00  0.0000000E+00  0.5050505E-02 -0.1693550E-05  0.0000000E+00  0.1349357E-03
  0.9141414E+00  0.0000000E+00  0.5050505E-02 -0.1501514E-05  0.0000000E+00  0.1316793E-03
  0.9242424E+00  0.0000000E+00  0.5050505E-02 -0.1314159E-05  0.0000000E+00  0.1288106E-03
  0.9343435E+00  0.0000000E+00  0.5050505E-02 -0.1130882E-05  0.0000000E+00  0.1263202E-03
  0.9444444E+00  0.0000000E+00  0.5050505E-02 -0.9510995E-06  0.0000000E+00  0.1242002E-03
  0.9545454E+00  0.0000000E+00  0.5050505E-02 -0.7742442E-06  0.0000000E+00  0.1224437E-03
  0.9646465E+00  0.0000000E+00  0.5050505E-02 -0.5997616E-06  0.0000000E+00  0.1210452E-03
  0.9747475E+00  0.0000000E+00  0.5050505E-02 -0.4271086E-06  0.0000000E+00  0.1200001E-03
  0.9848485E+00  0.0000000E+00  0.5050505E-02 -0.2557516E-06  0.0000000E+00  0.1193052E-03
  0.9974747E+00  0.0000000E+00  0.5050505E-02 -0.8516570E-07  0.0000000E+00  0.1189582E-03
  0.5050505E-02  0.0000000E+00  0.1515152E-01  0.2622205E-06  0.0000000E+00  0.9364579E-04
  0.1515152E-01  0.0000000E+00  0.1515152E-01  0.7882057E-06  0.0000000E+00  0.9400041E-04
  0.2525252E-01  0.0000000E+00  0.1515152E-01  0.1318862E-05  0.0000000E+00  0.9471176E-04
  0.3535353E-01  0.0000000E+00  0.1515152E-01  0.1857395E-05  0.0000000E+00  0.9578410E-04
  0.4545455E-01  0.0000000E+00  0.1515152E-01  0.2407139E-05  0.0000000E+00  0.9722397E-04
  0.5555556E-01  0.0000000E+00  0.1515152E-01  0.2971596E-05  0.0000000E+00  0.9904024E-04
  0.6565657E-01  0.0000000E+00  0.1515152E-01  0.3554495E-05  0.0000000E+00  0.1012442E-03
  0.7575758E-01  0.0000000E+00  0.1515152E-01  0.4159853E-05  0.0000000E+00  0.1038500E-03
  0.8585858E-01  0.0000000E+00  0.1515152E-01  0.4792042E-05  0.0000000E+00  0.1068745E-03
  0.9595960E-01  0.0000000E+00  0.1515152E-01  0.5455873E-05  0.0000000E+00  0.1103377E-03
  0.1060606E+00  0.0000000E+00  0.1515152E-01  0.6156691E-05  0.0000000E+00  0.1142631E-03
  0.1161616E+00  0.0000000E+00  0.1515152E-01  0.6900491E-05  0.0000000E+00  0.1186784E-03
  0.1262626E+00  0.0000000E+00  0.1515152E-01  0.7694058E-05  0.0000000E+00  0.1236153E-03
  0.1363636E+00  0.0000000E+00  0.1515152E-01  0.8545138E-05  0.0000000E+00  0.1291109E-03
  0.1464646E+00  0.0000000E+00  0.1515152E-01  0.9462654E-05  0.0000000E+00  0.1352076E-03
  0.1565657E+00  0.0000000E+00  0.1515152E-01  0.1045698E-04  0.0000000E+00  0.1419550E-03
  0.1666667E+00  0.0000000E+00  0.1515152E-01  0.1154028E-04  0.0000000E+00  0.1494101E-03
  0.1767677E+00  0.0000000E+00  0.1515152E-01  0.1272697E-04  0.0000000E+00  0.1576393E-03
  0.1868687E+00  0.0000000E+00  0.1515152E-01  0.1403432E-04  0.0000000E+00  0.1667199E-03
  0.1969697E+00  0.0000000E+00  0.1515152E-01  0.1548320E-04  0.0000000E+00  0.1767423E-03
  0.2070707E+00  0.0000000E+00  0.1515152E-01  0.1709923E-04  0.0000000E+00  0.1878130E-03
  0.2171717E+00  0.0000000E+00  0.1515152E-01  0.1891420E-04  0.0000000E+00  0.2000582E-03
  0.2272727E+00  0.0000000E+00  0.1515152E-01  0.2096821E-04  0.0000000E+00  0.2136287E-03
  0.2373737E+00  0.0000000E+00  0.1515152E-01  0.2331272E-04  0.0000000E+00  0.2287067E-03
  0.2474747E+00  0.0000000E+00  0.1515152E-01  0.2601496E-04  0.0000000E+00  0.2455142E-03
  0.2575758E+00  0.0000000E+00  0.1515152E-01  0.2916482E-04  0.0000000E+00  0.2643262E-03
  0.2676768E+00  0.0000000E+00  0.1515152E-01  0.3288552E-04  0.0000000E+00  0.2854877E-03
  0.2777778E+00  0.0000000E+00  0.1515152E-01  0.3735096E-04  0.0000000E+00  0.3094405E-03
  0.2878788E+00  0.0000000E+00  0.1515152E-01  0.4281499E-04  0.0000000E+00  0.3367607E-03
  0.2979798E+00  0.0000000E+00  0.1515152E-01  0.4966296E-04  0.0000000E+00  0.3682160E-03
  0.3080808E+00  0.0000000E+00  0.1515152E-01  0.5850771E-04  0.0000000E+00  0.4048456E-03
  0.3181818E+00  0.0000000E+00  0.1515152E-01  0.7038056E-04  0.0000000E+00  0.4480438E-03
  0.3282828E+00  0.0000000E+00  0.1515152E-01  0.8714689E-04  0.0000000E+00  0.4994935E-03
  0.3383838E+00  0.0000000E+00  0.1515152E-01  0.1125159E-03  0.0000000E+00  0.5601018E-03
  0.3484848E+00  0.0000000E+00  0.1515152E-01  0.1548255E-03  0.0000000E+00  0.6237865E-03
  0.3585859E+00  0.0000000E+00  0.1515152E-01  0.1859924E-03  0.0000000E+00  0.6996709E-03
  0.3686869E+00  0.0000000E+00  0.1515152E-01  0.2670263E-03  0.0000000E+00  0.7816622E-03
  0.3787879E+00  0.0000000E+00  0.1515152E-01  0.3377923E-03  0.0000000E+00  0.8867130E-03
  0.3888889E+00  0.0000000E+00  0.1515152E-01  0.2147531E-03  0.0000000E+00  0.1180845E-02
  0.3989899E+00  0.0000000E+00  0.1515152E-01 -0.5159791E-04  0.0000000E+00  0.1373480E-02
  0.4090909E+00  0.0000000E+00  0.1515152E-01 -0.1530019E-03  0.0000000E+00  0.1308080E-02
  0.4191919E+00  0.0000000E+00  0.1515152E-01 -0.6131225E-04  0.0000000E+00  0.1261021E-02
  0.4292929E+00  0.0000000E+00  0.1515152E-01  0.4479954E-05  0.0000000E+00  0.1247307E-02
  0.4393939E+00  0.0000000E+00  0.1515152E-01 -0.5031801E-04  0.0000000E+00  0.1239643E-02
  0.4494950E+00  0.0000000E+00  0.1515152E-01 -0.2348852E-04  0.0000000E+00  0.1227985E-02
  0.4595959E+00  0.0000000E+00  0.1515152E-01 -0.3116544E-04  0.0000000E+00  0.1213111E-02
  0.4696970E+00  0.0000000E+00  0.1515152E-01 -0.2737481E-04  0.0000000E+00  0.1190345E-02
  0.4797980E+00  0.0000000E+00  0.1515152E-01 -0.2653970E-04  0.0000000E+00  0.1169515E-02
  0.4898990E+00  0.0000000E+00  0.1515152E-01 -0.2914590E-04  0.0000000E+00  0.1143348E-02
  0.5000000E+00  0.0000000E+00  0.1515152E-01 -0.1426288E-04  0.0000000E+00  0.1112017E-02
  0.5101010E+00  0.0000000E+00  0.1515152E-01 -0.1251337E-03  0.0000000E+00  0.1056588E-02
  0.5202020E+00  0.0000000E+00  0.1515152E-01 -0.9701529E-04  0.0000000E+00  0.9839402E-03
  0.5303030E+00  0.0000000E+00  0.1515152E-01 -0.8164409E-04  0.0000000E+00  0.9225992E-03
  0.5404040E+00  0.0000000E+00  0.1515152E-01 -0.7451367E-04  0.0000000E+00  0.8678682E-03
  0.5505050E+00  0.0000000E+00  0.1515152E-01 -0.7369572E-04  0.0000000E+00  0.8148730E-03
  0.5606061E+00  0.0000000E+00  0.1515152E-01 -0.7530286E-04  0.0000000E+00  0.7599786E-03
  0.5707071E+00  0.0000000E+00  0.1515152E-01 -0.7232570E-04  0.0000000E+00  0.7049874E-03
  0.5808081E+00  0.0000000E+00  0.1515152E-01 -0.6688366E-04  0.0000000E+00  0.6538434E-03
  0.5909091E+00  0.0000000E+00  0.1515152E-01 -0.6082944E-04  0.0000000E+00  0.6076409E-03
  0.6010101E+00  0.0000000E+00  0.1515152E-01 -0.5504796E-04  0.0000000E+00  0.5661964E-03
  0.6111111E+00  0.0000000E+00  0.1515152E-01 -0.4985264E-04  0.0000000E+00  0.5289659E-03
  0.6212121E+00  0.0000000E+00  0.1515152E-01 -0.4529631E-04  0.0000000E+00  0.4953735E-03
  0.6313131E+00  0.0000000E+00  0.1515152E-01 -0.4132982E-04  0.0000000E+00  0.4649064E-03
  0.6414142E+00  0.0000000E+00  0.1515152E-01 -0.3787289E-04  0.0000000E+00  0.4371329E-03
  0.6515151E+00  0.0000000E+00  0.1515152E-01 -0.3484330E-04  0.0000000E+00  0.4116974E-03
  0.6616161E+00  0.0000000E+00  0.1515152E-01 -0.3216787E-04  0.0000000E+00  0.3883092E-03
  0.6717172E+00  0.0000000E+00  0.1515152E-01 -0.2978554E-04  0.0000000E+00  0.3667301E-03
  0.6818182E+00  0.0000000E+00  0.1515152E-01 -0.2764697E-04  0.0000000E+00  0.3467638E-03
  0.6919192E+00  0.0000000E+00  0.1515152E-01 -0.2571288E-04  0.0000000E+00  0.3282470E-03
  0.7020202E+00  0.0000000E+00  0.1515152E-01 -0.2395213E-04  0.0000000E+00  0.3110421E-03
  0.7121212E+00  0.0000000E+00  0.1515152E-01 -0.2233980E-04  0.0000000E+00  0.2950322E-03
  0.7222222E+00  0.0000000E+00  0.1515152E-01 -0.2085572E-04  0.0000000E+00  0.2801164E-03
  0.7323232E+00  0.0000000E+00  0.1515152E-01 -0.1948328E-04  0.0000000E+00  0.2662076E-03
  0.7424242E+00  0.0000000E+00  0.1515152E-01 -0.1820864E-04  0.0000000E+00  0.2532296E-03
  0.7525253E+00  0.0000000E+00  0.1515152E-01 -0.1702009E-04  0.0000000E+00  0.2411156E-03
  0.7626263E+00  0.0000000E+00  0.1515152E-01 -0.1590763E-04  0.0000000E+00  0.2298068E-03
  0.7727273E+00  0.0000000E+00  0.1515152E-01 -0.1486272E-04  0.0000000E+00  0.2192512E-03
  0.7828283E+00  0.0000000E+00  0.1515152E-01 -0.1387799E-04  0.0000000E+00  0.2094026E-03
  0.7929293E+00  0.0000000E+00  0.1515152E-01 -0.1294709E-04  0.0000000E+00  0.2002198E-03
  0.8030303E+00  0.0000000E+00  0.1515152E-01 -0.1206451E-04  0.0000000E+00  0.1916659E-03
  0.8131313E+00  0.0000000E+00  0.1515152E-01 -0.1122549E-04  0.0000000E+00  0.1837080E-03
  0.8232324E+00  0.0000000E+00  0.1515152E-01 -0.1042585E-04  0.0000000E+00  0.1763162E-03
  0.8333333E+00  0.0000000E+00  0.1515152E-01 -0.9661894E-05  0.0000000E+00  0.1694636E-03
  0.8434343E+00  0.0000000E+00  0.1515152E-01 -0.8930363E-05  0.0000000E+00  0.1631258E-03
  0.8535354E+00  0.0000000E+00  0.1515152E-01 -0.8228306E-05  0.0000000E+00  0.1572806E-03
  0.8636364E+00  0.0000000E+00  0.1515152E-01 -0.7553043E-05  0.0000000E+00  0.1519080E-03
  0.8737374E+00  0.0000000E+00  0.1515152E-01 -0.6902108E-05  0.0000000E+00  0.1469896E-03
  0.8838384E+00  0.0000000E+00  0.1515152E-01 -0.6273209E-05  0.0000000E+00  0.1425091E-03
  0.8939394E+00  0.0000000E+00  0.1515152E-01 -0.5664191E-05  0.0000000E+00  0.1384515E-03
  0.9040404E+00  0.0000000E+00  0.1515152E-01 -0.5073015E-05  0.0000000E+00  0.1348034E-03
  0.9141414E+00  0.0000000E+00  0.1515152E-01 -0.4497734E-05  0.0000000E+00  0.1315528E-03
  0.9242424E+00  0.0000000E+00  0.1515152E-01 -0.3936481E-05  0.0000000E+00  0.1286892E-03
  0.9343435E+00  0.0000000E+00  0.1515152E-01 -0.3387454E-05  0.0000000E+00  0.1262032E-03
  0.9444444E+00  0.0000000E+00  0.1515152E-01 -0.2848905E-05  0.0000000E+00  0.1240869E-03
  0.9545454E+00  0.0000000E+00  0.1515152E-01 -0.2319134E-05  0.0000000E+00  0.1223335E-03
  0.9646465E+00  0.0000000E+00  0.1515152E-01 -0.1796480E-05  0.0000000E+00  0.1209374E-03
  0.9747475E+00  0.0000000E+00  0.1515152E-01 -0.1279318E-05  0.0000000E+00  0.1198941E-03
  0.9848485E+00  0.0000000E+00  0.1515152E-01 -0.7660467E-06  0.0000000E+00  0.1192004E-03
  0.9974747E+00  0.0000000E+00  0.1515152E-01 -0.2550934E-06  0.0000000E+00  0.1188540E-03
  0.5050505E-02  0.0000000E+00  0.2525252E-01  0.4352833E-06  0.0000000E+00  0.9340476E-04
  0.1515152E-01  0.0000000E+00  0.2525252E-01  0.1308409E-05  0.0000000E+00  0.9375658E-04
  0.2525252E-01  0.0000000E+00  0.2525252E-01  0.2189266E-05  0.0000000E+00  0.9446226E-04
  0.3535353E-01  0.0000000E+00  0.2525252E-01  0.3083155E-05  0.0000000E+00  0.9552596E-04
  0.4545455E-01  0.0000000E+00  0.2525252E-01  0.3995579E-05  0.0000000E+00  0.9695404E-04
  0.5555556E-01  0.0000000E+00  0.2525252E-01  0.4932323E-05  0.0000000E+00  0.9875513E-04
  0.6565657E-01  0.0000000E+00  0.2525252E-01  0.5899539E-05  0.0000000E+00  0.1009403E-03
  0.7575758E-01  0.0000000E+00  0.2525252E-01  0.6903852E-05  0.0000000E+00  0.1035232E-03
  0.8585858E-01  0.0000000E+00  0.2525252E-01  0.7952468E-05  0.0000000E+00  0.1065203E-03
  0.9595960E-01  0.0000000E+00  0.2525252E-01  0.9053310E-05  0.0000000E+00  0.1099512E-03
  0.1060606E+00  0.0000000E+00  0.2525252E-01  0.1021517E-04  0.0000000E+00  0.1138386E-03
  0.1161616E+00  0.0000000E+00  0.2525252E-01  0.1144791E-04  0.0000000E+00  0.1182092E-03
  0.1262626E+00  0.0000000E+00  0.2525252E-01  0.1276266E-04  0.0000000E+00  0.1230940E-03
  0.1363636E+00  0.0000000E+00  0.2525252E-01  0.1417213E-04  0.0000000E+00  0.1285286E-03
  0.1464646E+00  0.0000000E+00  0.2525252E-01  0.1569091E-04  0.0000000E+00  0.1345541E-03
  0.1565657E+00  0.0000000E+00  0.2525252E-01  0.1733595E-04  0.0000000E+00  0.1412179E-03
  0.1666667E+00  0.0000000E+00  0.2525252E-01  0.1912707E-04  0.0000000E+00  0.1485749E-03
  0.1767677E+00  0.0000000E+00  0.2525252E-01  0.2108772E-04  0.0000000E+00  0.1566882E-03
  0.1868687E+00  0.0000000E+00  0.2525252E-01  0.2324585E-04  0.0000000E+00  0.1656313E-03
  0.1969697E+00  0.0000000E+00  0.2525252E-01  0.2563518E-04  0.0000000E+00  0.1754895E-03
  0.2070707E+00  0.0000000E+00  0.2525252E-01  0.2829687E-04  0.0000000E+00  0.1863625E-03
  0.2171717E+00  0.0000000E+00  0.2525252E-01  0.3128177E-04  0.0000000E+00  0.1983675E-03
  0.2272727E+00  0.0000000E+00  0.2525252E-01  0.3465361E-04  0.0000000E+00  0.2116432E-03
  0.2373737E+00  0.0000000E+00  0.2525252E-01  0.3849348E-04  0.0000000E+00  0.2263545E-03
  0.2474747E+00  0.0000000E+00  0.2525252E-01  0.4290640E-04  0.0000000E+00  0.2426991E-03
  0.2575758E+00  0.0000000E+00  0.2525252E-01  0.4803112E-04  0.0000000E+00  0.2609166E-03
  0.2676768E+00  0.0000000E+00  0.2525252E-01  0.5405497E-04  0.0000000E+00  0.2812990E-03
  0.2777778E+00  0.0000000E+00  0.2525252E-01  0.6123734E-04  0.0000000E+00  0.3042058E-03
  0.2878788E+00  0.0000000E+00  0.2525252E-01  0.6994747E-04  0.0000000E+00  0.3300825E-03
  0.2979798E+00  0.0000000E+00  0.2525252E-01  0.8072653E-04  0.0000000E+00  0.3594820E-03
  0.3080808E+00  0.0000000E+00  0.2525252E-01  0.9439049E-04  0.0000000E+00  0.3930846E-03
  0.3181818E+00  0.0000000E+00  0.2525252E-01  0.1121943E-03  0.0000000E+00  0.4316960E-03
  0.3282828E+00  0.0000000E+00  0.2525252E-01  0.1360510E-03  0.0000000E+00  0.4761647E-03
  0.3383838E+00  0.0000000E+00  0.2525252E-01  0.1685799E-03  0.0000000E+00  0.5270595E-03
  0.3484848E+00  0.0000000E+00  0.2525252E-01  0.2115589E-03  0.0000000E+00  0.5838041E-03
  0.3585859E+00  0.0000000E+00  0.2525252E-01  0.2553640E-03  0.0000000E+00  0.6433768E-03
  0.3686869E+00  0.0000000E+00  0.2525252E-01  0.3239538E-03  0.0000000E+00  0.6979868E-03
  0.3787879E+00  0.0000000E+00  0.2525252E-01  0.4190754E-03  0.0000000E+00  0.7434582E-03
  0.3888889E+00  0.0000000E+00  0.2525252E-01  0.4796601E-03  0.0000000E+00  0.8350699E-03
  0.3989899E+00  0.0000000E+00  0.2525252E-01  0.5887982E-04  0.0000000E+00  0.1066444E-02
  0.4090909E+00  0.0000000E+00  0.2525252E-01 -0.2013807E-03  0.0000000E+00  0.1200558E-02
  0.4191919E+00  0.0000000E+00  0.2525252E-01 -0.7579453E-04  0.0000000E+00  0.1171634E-02
  0.4292929E+00  0.0000000E+00  0.2525252E-01  0.7179554E-05  0.0000000E+00  0.1170819E-02
  0.4393939E+00  0.0000000E+00  0.2525252E-01 -0.4553280E-04  0.0000000E+00  0.1186866E-02
  0.4494950E+00  0.0000000E+00  0.2525252E-01 -0.6881853E-05  0.0000000E+00  0.1223260E-02
  0.4595959E+00  0.0000000E+00  0.2525252E-01 -0.6118459E-04  0.0000000E+00  0.1221890E-02
  0.4696970E+00  0.0000000E+00  0.2525252E-01 -0.4249517E-04  0.0000000E+00  0.1190689E-02
  0.4797980E+00  0.0000000E+00  0.2525252E-01 -0.4096894E-04  0.0000000E+00  0.1176187E-02
  0.4898990E+00  0.0000000E+00  0.2525252E-01 -0.6502886E-04  0.0000000E+00  0.1142928E-02
  0.5000000E+00  0.0000000E+00  0.2525252E-01 -0.6353917E-04  0.0000000E+00  0.1074806E-02
  0.5101010E+00  0.0000000E+00  0.2525252E-01 -0.1801769E-03  0.0000000E+00  0.1009720E-02
  0.5202020E+00  0.0000000E+00  0.2525252E-01 -0.1483879E-03  0.0000000E+00  0.9605865E-03
  0.5303030E+00  0.0000000E+00  0.2525252E-01 -0.1274283E-03  0.0000000E+00  0.9116251E-03
  0.5404040E+00  0.0000000E+00  0.2525252E-01 -0.1175941E-03  0.0000000E+00  0.8661933E-03
  0.5505050E+00  0.0000000E+00  0.2525252E-01 -0.1201784E-03  0.0000000E+00  0.8190719E-03
  0.5606061E+00  0.0000000E+00  0.2525252E-01 -0.1298777E-03  0.0000000E+00  0.7621239E-03
  0.5707071E+00  0.0000000E+00  0.2525252E-01 -0.1230071E-03  0.0000000E+00  0.7016183E-03
  0.5808081E+00  0.0000000E+00  0.2525252E-01 -0.1121237E-03  0.0000000E+00  0.6482320E-03
  0.5909091E+00  0.0000000E+00  0.2525252E-01 -0.1011357E-03  0.0000000E+00  0.6017527E-03
  0.6010101E+00  0.0000000E+00  0.2525252E-01 -0.9117148E-04  0.0000000E+00  0.5608135E-03
  0.6111111E+00  0.0000000E+00  0.2525252E-01 -0.8245119E-04  0.0000000E+00  0.5243039E-03
  0.6212121E+00  0.0000000E+00  0.2525252E-01 -0.7490266E-04  0.0000000E+00  0.4914213E-03
  0.6313131E+00  0.0000000E+00  0.2525252E-01 -0.6837090E-04  0.0000000E+00  0.4615765E-03
  0.6414142E+00  0.0000000E+00  0.2525252E-01 -0.6269134E-04  0.0000000E+00  0.4343219E-03
  0.6515151E+00  0.0000000E+00  0.2525252E-01 -0.5771525E-04  0.0000000E+00  0.4093096E-03
  0.6616161E+00  0.0000000E+00  0.2525252E-01 -0.5331732E-04  0.0000000E+00  0.3862634E-03
  0.6717172E+00  0.0000000E+00  0.2525252E-01 -0.4939598E-04  0.0000000E+00  0.3649609E-03
  0.6818182E+00  0.0000000E+00  0.2525252E-01 -0.4587064E-04  0.0000000E+00  0.3452200E-03
  0.6919192E+00  0.0000000E+00  0.2525252E-01 -0.4267788E-04  0.0000000E+00  0.3268886E-03
  0.7020202E+00  0.0000000E+00  0.2525252E-01 -0.3976768E-04  0.0000000E+00  0.3098381E-03
  0.7121212E+00  0.0000000E+00  0.2525252E-01 -0.3710010E-04  0.0000000E+00  0.2939581E-03
  0.7222222E+00  0.0000000E+00  0.2525252E-01 -0.3464270E-04  0.0000000E+00  0.2791529E-03
  0.7323232E+00  0.0000000E+00  0.2525252E-01 -0.3236869E-04  0.0000000E+00  0.2653388E-03
  0.7424242E+00  0.0000000E+00  0.2525252E-01 -0.3025561E-04  0.0000000E+00  0.2524425E-03
  0.7525253E+00  0.0000000E+00  0.2525252E-01 -0.2828435E-04  0.0000000E+00  0.2403993E-03
  0.7626263E+00  0.0000000E+00  0.2525252E-01 -0.2643857E-04  0.0000000E+00  0.2291521E-03
  0.7727273E+00  0.0000000E+00  0.2525252E-01 -0.2470425E-04  0.0000000E+00  0.2186503E-03
  0.7828283E+00  0.0000000E+00  0.2525252E-01 -0.2306928E-04  0.0000000E+00  0.2088490E-03
  0.7929293E+00  0.0000000E+00  0.2525252E-01 -0.2152323E-04  0.0000000E+00  0.1997080E-03
  0.8030303E+00  0.0000000E+00  0.2525252E-01 -0.2005706E-04  0.0000000E+00  0.1911912E-03
  0.8131313E+00  0.0000000E+00  0.2525252E-01 -0.1866293E-04  0.0000000E+00  0.1832663E-03
  0.8232324E+00  0.0000000E+00  0.2525252E-01 -0.1733396E-04  0.0000000E+00  0.1759041E-03
  0.8333333E+00  0.0000000E+00  0.2525252E-01 -0.1606413E-04  0.0000000E+00  0.1690781E-03
  0.8434343E+00  0.0000000E+00  0.2525252E-01 -0.1484803E-04  0.0000000E+00  0.1627643E-03
  0.8535354E+00  0.0000000E+00  0.2525252E-01 -0.1368082E-04  0.0000000E+00  0.1569409E-03
  0.8636364E+00  0.0000000E+00  0.2525252E-01 -0.1255809E-04  0.0000000E+00  0.1515879E-03
  0.8737374E+00  0.0000000E+00  0.2525252E-01 -0.1147576E-04  0.0000000E+00  0.1466874E-03
  0.8838384E+00  0.0000000E+00  0.2525252E-01 -0.1043005E-04  0.0000000E+00  0.1422229E-03
  0.8939394E+00  0.0000000E+00  0.2525252E-01 -0.9417393E-05  0.0000000E+00  0.1381797E-03
  0.9040404E+00  0.0000000E+00  0.2525252E-01 -0.8434402E-05  0.0000000E+00  0.1345445E-03
  0.9141414E+00  0.0000000E+00  0.2525252E-01 -0.7477852E-05  0.0000000E+00  0.1313054E-03
  0.9242424E+00  0.0000000E+00  0.2525252E-01 -0.6544644E-05  0.0000000E+00  0.1284518E-03
  0.9343435E+00  0.0000000E+00  0.2525252E-01 -0.5631781E-05  0.0000000E+00  0.1259745E-03
  0.9444444E+00  0.0000000E+00  0.2525252E-01 -0.4736363E-05  0.0000000E+00  0.1238656E-03
  0.9545454E+00  0.0000000E+00  0.2525252E-01 -0.3855561E-05  0.0000000E+00  0.1221182E-03
  0.9646465E+00  0.0000000E+00  0.2525252E-01 -0.2986615E-05  0.0000000E+00  0.1207269E-03
  0.9747475E+00  0.0000000E+00  0.2525252E-01 -0.2126819E-05  0.0000000E+00  0.1196871E-03
  0.9848485E+00  0.0000000E+00  0.2525252E-01 -0.1273513E-05  0.0000000E+00  0.1189958E-03
  0.9974747E+00  0.0000000E+00  0.2525252E-01 -0.4240771E-06  0.0000000E+00  0.1186506E-03
  0.5050505E-02  0.0000000E+00  0.3535353E-01  0.6061453E-06  0.0000000E+00  0.9305128E-04
  0.1515152E-01  0.0000000E+00  0.3535353E-01  0.1821981E-05  0.0000000E+00  0.9339898E-04
  0.2525252E-01  0.0000000E+00  0.3535353E-01  0.3048522E-05  0.0000000E+00  0.9409632E-04
  0.3535353E-01  0.0000000E+00  0.3535353E-01  0.4293098E-05  0.0000000E+00  0.9514729E-04
  0.4545455E-01  0.0000000E+00  0.3535353E-01  0.5563313E-05  0.0000000E+00  0.9655801E-04
  0.5555556E-01  0.0000000E+00  0.3535353E-01  0.6867155E-05  0.0000000E+00  0.9833680E-04
  0.6565657E-01  0.0000000E+00  0.3535353E-01  0.8213116E-05  0.0000000E+00  0.1004943E-03
  0.7575758E-01  0.0000000E+00  0.3535353E-01  0.9610329E-05  0.0000000E+00  0.1030436E-03
  0.8585858E-01  0.0000000E+00  0.3535353E-01  0.1106872E-04  0.0000000E+00  0.1060006E-03
  0.9595960E-01  0.0000000E+00  0.3535353E-01  0.1259919E-04  0.0000000E+00  0.1093839E-03
  0.1060606E+00  0.0000000E+00  0.3535353E-01  0.1421382E-04  0.0000000E+00  0.1132155E-03
  0.1161616E+00  0.0000000E+00  0.3535353E-01  0.1592614E-04  0.0000000E+00  0.1175208E-03
  0.1262626E+00  0.0000000E+00  0.3535353E-01  0.1775139E-04  0.0000000E+00  0.1223292E-03
  0.1363636E+00  0.0000000E+00  0.3535353E-01  0.1970692E-04  0.0000000E+00  0.1276746E-03
  0.1464646E+00  0.0000000E+00  0.3535353E-01  0.2181264E-04  0.0000000E+00  0.1335960E-03
  0.1565657E+00  0.0000000E+00  0.3535353E-01  0.2409158E-04  0.0000000E+00  0.1401381E-03
  0.1666667E+00  0.0000000E+00  0.3535353E-01  0.2657060E-04  0.0000000E+00  0.1473521E-03
  0.1767677E+00  0.0000000E+00  0.3535353E-01  0.2928131E-04  0.0000000E+00  0.1552971E-03
  0.1868687E+00  0.0000000E+00  0.3535353E-01  0.3226127E-04  0.0000000E+00  0.1640409E-03
  0.1969697E+00  0.0000000E+00  0.3535353E-01  0.3555554E-04  0.0000000E+00  0.1736618E-03
  0.2070707E+00  0.0000000E+00  0.3535353E-01  0.3921873E-04  0.0000000E+00  0.1842503E-03
  0.2171717E+00  0.0000000E+00  0.3535353E-01  0.4331784E-04  0.0000000E+00  0.1959112E-03
  0.2272727E+00  0.0000000E+00  0.3535353E-01  0.4793605E-04  0.0000000E+00  0.2087665E-03
  0.2373737E+00  0.0000000E+00  0.3535353E-01  0.5317807E-04  0.0000000E+00  0.2229584E-03
  0.2474747E+00  0.0000000E+00  0.3535353E-01  0.5917763E-04  0.0000000E+00  0.2386532E-03
  0.2575758E+00  0.0000000E+00  0.3535353E-01  0.6610843E-04  0.0000000E+00  0.2560450E-03
  0.2676768E+00  0.0000000E+00  0.3535353E-01  0.7420015E-04  0.0000000E+00  0.2753601E-03
  0.2777778E+00  0.0000000E+00  0.3535353E-01  0.8376262E-04  0.0000000E+00  0.2968597E-03
  0.2878788E+00  0.0000000E+00  0.3535353E-01  0.9522285E-04  0.0000000E+00  0.3208399E-03
  0.2979798E+00  0.0000000E+00  0.3535353E-01  0.1091829E-03  0.0000000E+00  0.3476229E-03