title = "dataset water"
variables = "x", "y", "z", "vx", "vy", "vz"
zone t = "velocities, solution time =  5.500E+01 days        " i =   99, j =   99, k =    1,  f=point
  0.5050505E-02  0.0000000E+00  0.5050505E-02  0.1432523E-06  0.0000000E+00  0.1757955E-03
  0.1515152E-01  0.0000000E+00  0.5050505E-02  0.4306070E-06  0.0000000E+00  0.1763835E-03
  0.2525252E-01  0.0000000E+00  0.5050505E-02  0.7205402E-06  0.0000000E+00  0.1775632E-03
  0.3535353E-01  0.0000000E+00  0.5050505E-02  0.1014826E-05  0.0000000E+00  0.1793418E-03
  0.4545455E-01  0.0000000E+00  0.5050505E-02  0.1315300E-05  0.0000000E+00  0.1817304E-03
  0.5555556E-01  0.0000000E+00  0.5050505E-02  0.1623881E-05  0.0000000E+00  0.1847444E-03
  0.6565657E-01  0.0000000E+00  0.5050505E-02  0.1942594E-05  0.0000000E+00  0.1884029E-03
  0.7575758E-01  0.0000000E+00  0.5050505E-02  0.2273599E-05  0.0000000E+00  0.1927298E-03
  0.8585858E-01  0.0000000E+00  0.5050505E-02  0.2619233E-05  0.0000000E+00  0.1977537E-03
  0.9595960E-01  0.0000000E+00  0.5050505E-02  0.2982046E-05  0.0000000E+00  0.2035087E-03
  0.1060606E+00  0.0000000E+00  0.5050505E-02  0.3364863E-05  0.0000000E+00  0.2100342E-03
  0.1161616E+00  0.0000000E+00  0.5050505E-02  0.3770857E-05  0.0000000E+00  0.2173767E-03
  0.1262626E+00  0.0000000E+00  0.5050505E-02  0.4203637E-05  0.0000000E+00  0.2255895E-03
  0.1363636E+00  0.0000000E+00  0.5050505E-02  0.4667382E-05  0.0000000E+00  0.2347347E-03
  0.1464646E+00  0.0000000E+00  0.5050505E-02  0.5167008E-05  0.0000000E+00  0.2448844E-03
  0.1565657E+00  0.0000000E+00  0.5050505E-02  0.5708402E-05  0.0000000E+00  0.2561224E-03
  0.1666667E+00  0.0000000E+00  0.5050505E-02  0.6298756E-05  0.0000000E+00  0.2685468E-03
  0.1767677E+00  0.0000000E+00  0.5050505E-02  0.6947043E-05  0.0000000E+00  0.2822735E-03
  0.1868687E+00  0.0000000E+00  0.5050505E-02  0.7664715E-05  0.0000000E+00  0.2974411E-03
  0.1969697E+00  0.0000000E+00  0.5050505E-02  0.8466780E-05  0.0000000E+00  0.3142170E-03
  0.2070707E+00  0.0000000E+00  0.5050505E-02  0.9373478E-05  0.0000000E+00  0.3328078E-03
  0.2171717E+00  0.0000000E+00  0.5050505E-02  0.1041304E-04  0.0000000E+00  0.3534733E-03
  0.2272727E+00  0.0000000E+00  0.5050505E-02  0.1162641E-04  0.0000000E+00  0.3765496E-03
  0.2373737E+00  0.0000000E+00  0.5050505E-02  0.1307559E-04  0.0000000E+00  0.4024861E-03
  0.2474747E+00  0.0000000E+00  0.5050505E-02  0.1485923E-04  0.0000000E+00  0.4319095E-03
  0.2575758E+00  0.0000000E+00  0.5050505E-02  0.1714118E-04  0.0000000E+00  0.4657357E-03
  0.2676768E+00  0.0000000E+00  0.5050505E-02  0.2019619E-04  0.0000000E+00  0.5053660E-03
  0.2777778E+00  0.0000000E+00  0.5050505E-02  0.2442635E-04  0.0000000E+00  0.5529580E-03
  0.2878788E+00  0.0000000E+00  0.5050505E-02  0.2992194E-04  0.0000000E+00  0.6112587E-03
  0.2979798E+00  0.0000000E+00  0.5050505E-02  0.3277654E-04  0.0000000E+00  0.6789782E-03
  0.3080808E+00  0.0000000E+00  0.5050505E-02  0.3394666E-04  0.0000000E+00  0.7516220E-03
  0.3181818E+00  0.0000000E+00  0.5050505E-02  0.4209526E-04  0.0000000E+00  0.8351634E-03
  0.3282828E+00  0.0000000E+00  0.5050505E-02  0.4758775E-04  0.0000000E+00  0.9346591E-03
  0.3383838E+00  0.0000000E+00  0.5050505E-02  0.5177758E-04  0.0000000E+00  0.1046193E-02
  0.3484848E+00  0.0000000E+00  0.5050505E-02  0.6863747E-04  0.0000000E+00  0.1183235E-02
  0.3585859E+00  0.0000000E+00  0.5050505E-02  0.1055988E-03  0.0000000E+00  0.1384939E-02
  0.3686869E+00  0.0000000E+00  0.5050505E-02  0.1958735E-03  0.0000000E+00  0.1743067E-02
  0.3787879E+00  0.0000000E+00  0.5050505E-02  0.2946985E-03  0.0000000E+00  0.2351139E-02
  0.3888889E+00  0.0000000E+00  0.5050505E-02 -0.1836441E-04  0.0000000E+00  0.2699084E-02
  0.3989899E+00  0.0000000E+00  0.5050505E-02 -0.9704597E-04  0.0000000E+00  0.2544908E-02
  0.4090909E+00  0.0000000E+00  0.5050505E-02 -0.1165054E-03  0.0000000E+00  0.2266051E-02
  0.4191919E+00  0.0000000E+00  0.5050505E-02 -0.4884369E-04  0.0000000E+00  0.2054307E-02
  0.4292929E+00  0.0000000E+00  0.5050505E-02 -0.3446560E-05  0.0000000E+00  0.1988007E-02
  0.4393939E+00  0.0000000E+00  0.5050505E-02 -0.1577668E-04  0.0000000E+00  0.1963746E-02
  0.4494950E+00  0.0000000E+00  0.5050505E-02  0.1991201E-04  0.0000000E+00  0.1968961E-02
  0.4595959E+00  0.0000000E+00  0.5050505E-02 -0.3401824E-04  0.0000000E+00  0.1951343E-02
  0.4696970E+00  0.0000000E+00  0.5050505E-02 -0.1736494E-05  0.0000000E+00  0.1906436E-02
  0.4797980E+00  0.0000000E+00  0.5050505E-02  0.2097945E-04  0.0000000E+00  0.1930593E-02
  0.4898990E+00  0.0000000E+00  0.5050505E-02  0.3302151E-04  0.0000000E+00  0.1998634E-02
  0.5000000E+00  0.0000000E+00  0.5050505E-02  0.4779271E-04  0.0000000E+00  0.2101269E-02
  0.5101010E+00  0.0000000E+00  0.5050505E-02 -0.7075242E-04  0.0000000E+00  0.2072581E-02
  0.5202020E+00  0.0000000E+00  0.5050505E-02 -0.7426000E-04  0.0000000E+00  0.1890849E-02
  0.5303030E+00  0.0000000E+00  0.5050505E-02 -0.6030586E-04  0.0000000E+00  0.1725180E-02
  0.5404040E+00  0.0000000E+00  0.5050505E-02 -0.6357763E-04  0.0000000E+00  0.1575424E-02
  0.5505050E+00  0.0000000E+00  0.5050505E-02 -0.4665069E-04  0.0000000E+00  0.1444022E-02
  0.5606061E+00  0.0000000E+00  0.5050505E-02 -0.3223473E-04  0.0000000E+00  0.1351008E-02
  0.5707071E+00  0.0000000E+00  0.5050505E-02 -0.1719406E-04  0.0000000E+00  0.1293122E-02
  0.5808081E+00  0.0000000E+00  0.5050505E-02 -0.6156150E-04  0.0000000E+00  0.1202349E-02
  0.5909091E+00  0.0000000E+00  0.5050505E-02 -0.7055486E-04  0.0000000E+00  0.1052123E-02
  0.6010101E+00  0.0000000E+00  0.5050505E-02 -0.4506409E-04  0.0000000E+00  0.9223985E-03
  0.6111111E+00  0.0000000E+00  0.5050505E-02 -0.3355326E-04  0.0000000E+00  0.8351529E-03
  0.6212121E+00  0.0000000E+00  0.5050505E-02 -0.2713350E-04  0.0000000E+00  0.7683552E-03
  0.6313131E+00  0.0000000E+00  0.5050505E-02 -0.2296929E-04  0.0000000E+00  0.7135721E-03
  0.6414142E+00  0.0000000E+00  0.5050505E-02 -0.2000933E-04  0.0000000E+00  0.6668428E-03
  0.6515151E+00  0.0000000E+00  0.5050505E-02 -0.1778904E-04  0.0000000E+00  0.6259476E-03
  0.6616161E+00  0.0000000E+00  0.5050505E-02 -0.1606120E-04  0.0000000E+00  0.5894843E-03
  0.6717172E+00  0.0000000E+00  0.5050505E-02 -0.1467220E-04  0.0000000E+00  0.5565094E-03
  0.6818182E+00  0.0000000E+00  0.5050505E-02 -0.1351740E-04  0.0000000E+00  0.5263734E-03
  0.6919192E+00  0.0000000E+00  0.5050505E-02 -0.1252350E-04  0.0000000E+00  0.4986272E-03
  0.7020202E+00  0.0000000E+00  0.5050505E-02 -0.1164039E-04  0.0000000E+00  0.4729603E-03
  0.7121212E+00  0.0000000E+00  0.5050505E-02 -0.1083596E-04  0.0000000E+00  0.4491542E-03
  0.7222222E+00  0.0000000E+00  0.5050505E-02 -0.1009136E-04  0.0000000E+00  0.4270478E-03
  0.7323232E+00  0.0000000E+00  0.5050505E-02 -0.9396489E-05  0.0000000E+00  0.4065129E-03
  0.7424242E+00  0.0000000E+00  0.5050505E-02 -0.8746210E-05  0.0000000E+00  0.3874393E-03
  0.7525253E+00  0.0000000E+00  0.5050505E-02 -0.8137703E-05  0.0000000E+00  0.3697270E-03
  0.7626263E+00  0.0000000E+00  0.5050505E-02 -0.7568884E-05  0.0000000E+00  0.3532826E-03
  0.7727273E+00  0.0000000E+00  0.5050505E-02 -0.7037627E-05  0.0000000E+00  0.3380181E-03
  0.7828283E+00  0.0000000E+00  0.5050505E-02 -0.6541498E-05  0.0000000E+00  0.3238515E-03
  0.7929293E+00  0.0000000E+00  0.5050505E-02 -0.6077749E-05  0.0000000E+00  0.3107073E-03
  0.8030303E+00  0.0000000E+00  0.5050505E-02 -0.5643440E-05  0.0000000E+00  0.2985165E-03
  0.8131313E+00  0.0000000E+00  0.5050505E-02 -0.5235584E-05  0.0000000E+00  0.2872171E-03
  0.8232324E+00  0.0000000E+00  0.5050505E-02 -0.4851268E-05  0.0000000E+00  0.2767538E-03
  0.8333333E+00  0.0000000E+00  0.5050505E-02 -0.4487757E-05  0.0000000E+00  0.2670775E-03
  0.8434343E+00  0.0000000E+00  0.5050505E-02 -0.4142549E-05  0.0000000E+00  0.2581453E-03
  0.8535354E+00  0.0000000E+00  0.5050505E-02 -0.3813410E-05  0.0000000E+00  0.2499192E-03
  0.8636364E+00  0.0000000E+00  0.5050505E-02 -0.3498373E-05  0.0000000E+00  0.2423661E-03
  0.8737374E+00  0.0000000E+00  0.5050505E-02 -0.3195723E-05  0.0000000E+00  0.2354568E-03
  0.8838384E+00  0.0000000E+00  0.5050505E-02 -0.2903970E-05  0.0000000E+00  0.2291659E-03
  0.8939394E+00  0.0000000E+00  0.5050505E-02 -0.2621818E-05  0.0000000E+00  0.2234708E-03
  0.9040404E+00  0.0000000E+00  0.5050505E-02 -0.2348124E-05  0.0000000E+00  0.2183518E-03
  0.9141414E+00  0.0000000E+00  0.5050505E-02 -0.2081869E-05  0.0000000E+00  0.2137914E-03
  0.9242424E+00  0.0000000E+00  0.5050505E-02 -0.1822122E-05  0.0000000E+00  0.2097745E-03
  0.9343435E+00  0.0000000E+00  0.5050505E-02 -0.1568024E-05  0.0000000E+00  0.2062878E-03
  0.9444444E+00  0.0000000E+00  0.5050505E-02 -0.1318757E-05  0.0000000E+00  0.2033198E-03
  0.9545454E+00  0.0000000E+00  0.5050505E-02 -0.1073539E-05  0.0000000E+00  0.2008610E-03
  0.9646465E+00  0.0000000E+00  0.5050505E-02 -0.8316072E-06  0.0000000E+00  0.1989034E-03
  0.9747475E+00  0.0000000E+00  0.5050505E-02 -0.5922120E-06  0.0000000E+00  0.1974405E-03
  0.9848485E+00  0.0000000E+00  0.5050505E-02 -0.3546153E-06  0.0000000E+00  0.1964679E-03
  0.9974747E+00  0.0000000E+00  0.5050505E-02 -0.1180878E-06  0.0000000E+00  0.1959824E-03
  0.5050505E-02  0.0000000E+00  0.1515152E-01  0.4286638E-06  0.0000000E+00  0.1754836E-03
  0.1515152E-01  0.0000000E+00  0.1515152E-01  0.1288542E-05  0.0000000E+00  0.1760690E-03
  0.2525252E-01  0.0000000E+00  0.1515152E-01  0.2156145E-05  0.0000000E+00  0.1772434E-03
  0.3535353E-01  0.0000000E+00  0.1515152E-01  0.3036777E-05  0.0000000E+00  0.1790140E-03
  0.4545455E-01  0.0000000E+00  0.1515152E-01  0.3935921E-05  0.0000000E+00  0.1813918E-03
  0.5555556E-01  0.0000000E+00  0.1515152E-01  0.4859303E-05  0.0000000E+00  0.1843917E-03
  0.6565657E-01  0.0000000E+00  0.1515152E-01  0.5812968E-05  0.0000000E+00  0.1880330E-03
  0.7575758E-01  0.0000000E+00  0.1515152E-01  0.6803363E-05  0.0000000E+00  0.1923391E-03
  0.8585858E-01  0.0000000E+00  0.1515152E-01  0.7837447E-05  0.0000000E+00  0.1973383E-03
  0.9595960E-01  0.0000000E+00  0.1515152E-01  0.8922819E-05  0.0000000E+00  0.2030641E-03
  0.1060606E+00  0.0000000E+00  0.1515152E-01  0.1006788E-04  0.0000000E+00  0.2095555E-03
  0.1161616E+00  0.0000000E+00  0.1515152E-01  0.1128206E-04  0.0000000E+00  0.2168580E-03
  0.1262626E+00  0.0000000E+00  0.1515152E-01  0.1257606E-04  0.0000000E+00  0.2250241E-03
  0.1363636E+00  0.0000000E+00  0.1515152E-01  0.1396224E-04  0.0000000E+00  0.2341148E-03
  0.1464646E+00  0.0000000E+00  0.1515152E-01  0.1545514E-04  0.0000000E+00  0.2442001E-03
  0.1565657E+00  0.0000000E+00  0.1515152E-01  0.1707210E-04  0.0000000E+00  0.2553618E-03
  0.1666667E+00  0.0000000E+00  0.1515152E-01  0.1883424E-04  0.0000000E+00  0.2676950E-03
  0.1767677E+00  0.0000000E+00  0.1515152E-01  0.2076782E-04  0.0000000E+00  0.2813113E-03
  0.1868687E+00  0.0000000E+00  0.1515152E-01  0.2290617E-04  0.0000000E+00  0.2963432E-03
  0.1969697E+00  0.0000000E+00  0.1515152E-01  0.2529275E-04  0.0000000E+00  0.3129496E-03
  0.2070707E+00  0.0000000E+00  0.1515152E-01  0.2798569E-04  0.0000000E+00  0.3313236E-03
  0.2171717E+00  0.0000000E+00  0.1515152E-01  0.3106531E-04  0.0000000E+00  0.3517046E-03
  0.2272727E+00  0.0000000E+00  0.1515152E-01  0.3464660E-04  0.0000000E+00  0.3743947E-03
  0.2373737E+00  0.0000000E+00  0.1515152E-01  0.3890129E-04  0.0000000E+00  0.3997859E-03
  0.2474747E+00  0.0000000E+00  0.1515152E-01  0.4409897E-04  0.0000000E+00  0.4284031E-03
  0.2575758E+00  0.0000000E+00  0.1515152E-01  0.5068977E-04  0.0000000E+00  0.4609860E-03
  0.2676768E+00  0.0000000E+00  0.1515152E-01  0.5948662E-04  0.0000000E+00  0.4986980E-03
  0.2777778E+00  0.0000000E+00  0.1515152E-01  0.7211569E-04  0.0000000E+00  0.5438814E-03
  0.2878788E+00  0.0000000E+00  0.1515152E-01  0.9229257E-04  0.0000000E+00  0.6035922E-03
  0.2979798E+00  0.0000000E+00  0.1515152E-01  0.9991916E-04  0.0000000E+00  0.6756739E-03
  0.3080808E+00  0.0000000E+00  0.1515152E-01  0.9540889E-04  0.0000000E+00  0.7430614E-03
  0.3181818E+00  0.0000000E+00  0.1515152E-01  0.1010873E-03  0.0000000E+00  0.7919781E-03
  0.3282828E+00  0.0000000E+00  0.1515152E-01  0.1168667E-03  0.0000000E+00  0.8348999E-03
  0.3383838E+00  0.0000000E+00  0.1515152E-01  0.1447618E-03  0.0000000E+00  0.9049946E-03
  0.3484848E+00  0.0000000E+00  0.1515152E-01  0.1893972E-03  0.0000000E+00  0.1009587E-02
  0.3585859E+00  0.0000000E+00  0.1515152E-01  0.2728294E-03  0.0000000E+00  0.1138332E-02
  0.3686869E+00  0.0000000E+00  0.1515152E-01  0.4401778E-03  0.0000000E+00  0.1264326E-02
  0.3787879E+00  0.0000000E+00  0.1515152E-01  0.6145781E-03  0.0000000E+00  0.1350798E-02
  0.3888889E+00  0.0000000E+00  0.1515152E-01  0.2957540E-03  0.0000000E+00  0.1791179E-02
  0.3989899E+00  0.0000000E+00  0.1515152E-01 -0.2164300E-03  0.0000000E+00  0.2168344E-02
  0.4090909E+00  0.0000000E+00  0.1515152E-01 -0.2907510E-03  0.0000000E+00  0.2058901E-02
  0.4191919E+00  0.0000000E+00  0.1515152E-01 -0.1275627E-03  0.0000000E+00  0.1942435E-02
  0.4292929E+00  0.0000000E+00  0.1515152E-01 -0.1131420E-04  0.0000000E+00  0.1896928E-02
  0.4393939E+00  0.0000000E+00  0.1515152E-01 -0.3797574E-04  0.0000000E+00  0.1882378E-02
  0.4494950E+00  0.0000000E+00  0.1515152E-01  0.4201427E-04  0.0000000E+00  0.1877026E-02
  0.4595959E+00  0.0000000E+00  0.1515152E-01 -0.8111380E-04  0.0000000E+00  0.1862804E-02
  0.4696970E+00  0.0000000E+00  0.1515152E-01  0.2280392E-05  0.0000000E+00  0.1852600E-02
  0.4797980E+00  0.0000000E+00  0.1515152E-01  0.7033207E-04  0.0000000E+00  0.1896984E-02
  0.4898990E+00  0.0000000E+00  0.1515152E-01  0.9543893E-04  0.0000000E+00  0.1972961E-02
  0.5000000E+00  0.0000000E+00  0.1515152E-01  0.7588760E-04  0.0000000E+00  0.1987695E-02
  0.5101010E+00  0.0000000E+00  0.1515152E-01 -0.2066870E-03  0.0000000E+00  0.1879810E-02
  0.5202020E+00  0.0000000E+00  0.1515152E-01 -0.2103222E-03  0.0000000E+00  0.1718843E-02
  0.5303030E+00  0.0000000E+00  0.1515152E-01 -0.1663900E-03  0.0000000E+00  0.1585012E-02
  0.5404040E+00  0.0000000E+00  0.1515152E-01 -0.1522760E-03  0.0000000E+00  0.1497398E-02
  0.5505050E+00  0.0000000E+00  0.1515152E-01 -0.1371914E-03  0.0000000E+00  0.1413585E-02
  0.5606061E+00  0.0000000E+00  0.1515152E-01 -0.9675956E-04  0.0000000E+00  0.1322419E-02
  0.5707071E+00  0.0000000E+00  0.1515152E-01 -0.9228860E-04  0.0000000E+00  0.1216498E-02
  0.5808081E+00  0.0000000E+00  0.1515152E-01 -0.1934823E-03  0.0000000E+00  0.1069492E-02
  0.5909091E+00  0.0000000E+00  0.1515152E-01 -0.1711189E-03  0.0000000E+00  0.9561491E-03
  0.6010101E+00  0.0000000E+00  0.1515152E-01 -0.1226170E-03  0.0000000E+00  0.8861099E-03
  0.6111111E+00  0.0000000E+00  0.1515152E-01 -0.9598882E-04  0.0000000E+00  0.8179022E-03
  0.6212121E+00  0.0000000E+00  0.1515152E-01 -0.7927777E-04  0.0000000E+00  0.7584214E-03
  0.6313131E+00  0.0000000E+00  0.1515152E-01 -0.6774174E-04  0.0000000E+00  0.7070707E-03
  0.6414142E+00  0.0000000E+00  0.1515152E-01 -0.5929121E-04  0.0000000E+00  0.6622596E-03
  0.6515151E+00  0.0000000E+00  0.1515152E-01 -0.5286300E-04  0.0000000E+00  0.6225723E-03
  0.6616161E+00  0.0000000E+00  0.1515152E-01 -0.4782664E-04  0.0000000E+00  0.5869173E-03
  0.6717172E+00  0.0000000E+00  0.1515152E-01 -0.4376151E-04  0.0000000E+00  0.5544935E-03
  0.6818182E+00  0.0000000E+00  0.1515152E-01 -0.4036966E-04  0.0000000E+00  0.5247316E-03
  0.6919192E+00  0.0000000E+00  0.1515152E-01 -0.3743855E-04  0.0000000E+00  0.4972370E-03
  0.7020202E+00  0.0000000E+00  0.1515152E-01 -0.3482251E-04  0.0000000E+00  0.4717404E-03
  0.7121212E+00  0.0000000E+00  0.1515152E-01 -0.3242959E-04  0.0000000E+00  0.4480544E-03
  0.7222222E+00  0.0000000E+00  0.1515152E-01 -0.3020755E-04  0.0000000E+00  0.4260400E-03
  0.7323232E+00  0.0000000E+00  0.1515152E-01 -0.2812964E-04  0.0000000E+00  0.4055827E-03
  0.7424242E+00  0.0000000E+00  0.1515152E-01 -0.2618302E-04  0.0000000E+00  0.3865796E-03
  0.7525253E+00  0.0000000E+00  0.1515152E-01 -0.2436079E-04  0.0000000E+00  0.3689337E-03
  0.7626263E+00  0.0000000E+00  0.1515152E-01 -0.2265747E-04  0.0000000E+00  0.3525522E-03
  0.7727273E+00  0.0000000E+00  0.1515152E-01 -0.2106699E-04  0.0000000E+00  0.3373469E-03
  0.7828283E+00  0.0000000E+00  0.1515152E-01 -0.1958208E-04  0.0000000E+00  0.3232353E-03
  0.7929293E+00  0.0000000E+00  0.1515152E-01 -0.1819441E-04  0.0000000E+00  0.3101410E-03
  0.8030303E+00  0.0000000E+00  0.1515152E-01 -0.1689503E-04  0.0000000E+00  0.2979950E-03
  0.8131313E+00  0.0000000E+00  0.1515152E-01 -0.1567489E-04  0.0000000E+00  0.2867353E-03
  0.8232324E+00  0.0000000E+00  0.1515152E-01 -0.1452515E-04  0.0000000E+00  0.2763066E-03
  0.8333333E+00  0.0000000E+00  0.1515152E-01 -0.1343756E-04  0.0000000E+00  0.2666605E-03
  0.8434343E+00  0.0000000E+00  0.1515152E-01 -0.1240461E-04  0.0000000E+00  0.2577543E-03
  0.8535354E+00  0.0000000E+00  0.1515152E-01 -0.1141958E-04  0.0000000E+00  0.2495507E-03
  0.8636364E+00  0.0000000E+00  0.1515152E-01 -0.1047660E-04  0.0000000E+00  0.2420170E-03
  0.8737374E+00  0.0000000E+00  0.1515152E-01 -0.9570546E-05  0.0000000E+00  0.2351246E-03
  0.8838384E+00  0.0000000E+00  0.1515152E-01 -0.8696998E-05  0.0000000E+00  0.2288482E-03
  0.8939394E+00  0.0000000E+00  0.1515152E-01 -0.7852095E-05  0.0000000E+00  0.2231658E-03
  0.9040404E+00  0.0000000E+00  0.1515152E-01 -0.7032449E-05  0.0000000E+00  0.2180578E-03
  0.9141414E+00  0.0000000E+00  0.1515152E-01 -0.6235030E-05  0.0000000E+00  0.2135071E-03
  0.9242424E+00  0.0000000E+00  0.1515152E-01 -0.5457080E-05  0.0000000E+00  0.2094985E-03
  0.9343435E+00  0.0000000E+00  0.1515152E-01 -0.4696035E-05  0.0000000E+00  0.2060189E-03
  0.9444444E+00  0.0000000E+00  0.1515152E-01 -0.3949466E-05  0.0000000E+00  0.2030570E-03
  0.9545454E+00  0.0000000E+00  0.1515152E-01 -0.3215035E-05  0.0000000E+00  0.2006032E-03
  0.9646465E+00  0.0000000E+00  0.1515152E-01 -0.2490463E-05  0.0000000E+00  0.1986495E-03
  0.9747475E+00  0.0000000E+00  0.1515152E-01 -0.1773509E-05  0.0000000E+00  0.1971896E-03
  0.9848485E+00  0.0000000E+00  0.1515152E-01 -0.1061961E-05  0.0000000E+00  0.1962189E-03
  0.9974747E+00  0.0000000E+00  0.1515152E-01 -0.3536327E-06  0.0000000E+00  0.1957343E-03
  0.5050505E-02  0.0000000E+00  0.2525252E-01  0.7112861E-06  0.0000000E+00  0.1748695E-03
  0.1515152E-01  0.0000000E+00  0.2525252E-01  0.2138098E-05  0.0000000E+00  0.1754498E-03
  0.2525252E-01  0.0000000E+00  0.2525252E-01  0.3577729E-05  0.0000000E+00  0.1766138E-03
  0.3535353E-01  0.0000000E+00  0.2525252E-01  0.5038955E-05  0.0000000E+00  0.1783686E-03
  0.4545455E-01  0.0000000E+00  0.2525252E-01  0.6530846E-05  0.0000000E+00  0.1807249E-03
  0.5555556E-01  0.0000000E+00  0.2525252E-01  0.8062861E-05  0.0000000E+00  0.1836973E-03
  0.6565657E-01  0.0000000E+00  0.2525252E-01  0.9644975E-05  0.0000000E+00  0.1873046E-03
  0.7575758E-01  0.0000000E+00  0.2525252E-01  0.1128782E-04  0.0000000E+00  0.1915697E-03
  0.8585858E-01  0.0000000E+00  0.2525252E-01  0.1300285E-04  0.0000000E+00  0.1965201E-03
  0.9595960E-01  0.0000000E+00  0.2525252E-01  0.1480255E-04  0.0000000E+00  0.2021885E-03
  0.1060606E+00  0.0000000E+00  0.2525252E-01  0.1670070E-04  0.0000000E+00  0.2086128E-03
  0.1161616E+00  0.0000000E+00  0.2525252E-01  0.1871270E-04  0.0000000E+00  0.2158370E-03
  0.1262626E+00  0.0000000E+00  0.2525252E-01  0.2085602E-04  0.0000000E+00  0.2239118E-03
  0.1363636E+00  0.0000000E+00  0.2525252E-01  0.2315075E-04  0.0000000E+00  0.2328954E-03
  0.1464646E+00  0.0000000E+00  0.2525252E-01  0.2562036E-04  0.0000000E+00  0.2428551E-03
  0.1565657E+00  0.0000000E+00  0.2525252E-01  0.2829276E-04  0.0000000E+00  0.2538682E-03
  0.1666667E+00  0.0000000E+00  0.2525252E-01  0.3120174E-04  0.0000000E+00  0.2660240E-03
  0.1767677E+00  0.0000000E+00  0.2525252E-01  0.3438895E-04  0.0000000E+00  0.2794264E-03
  0.1868687E+00  0.0000000E+00  0.2525252E-01  0.3790686E-04  0.0000000E+00  0.2941967E-03
  0.1969697E+00  0.0000000E+00  0.2525252E-01  0.4182299E-04  0.0000000E+00  0.3104779E-03
  0.2070707E+00  0.0000000E+00  0.2525252E-01  0.4622643E-04  0.0000000E+00  0.3284396E-03
  0.2171717E+00  0.0000000E+00  0.2525252E-01  0.5123790E-04  0.0000000E+00  0.3482851E-03
  0.2272727E+00  0.0000000E+00  0.2525252E-01  0.5702597E-04  0.0000000E+00  0.3702591E-03
  0.2373737E+00  0.0000000E+00  0.2525252E-01  0.6383390E-04  0.0000000E+00  0.3946568E-03
  0.2474747E+00  0.0000000E+00  0.2525252E-01  0.7202569E-04  0.0000000E+00  0.4218266E-03
  0.2575758E+00  0.0000000E+00  0.2525252E-01  0.8216922E-04  0.0000000E+00  0.4521416E-03
  0.2676768E+00  0.0000000E+00  0.2525252E-01  0.9519909E-04  0.0000000E+00  0.4858275E-03
  0.2777778E+00  0.0000000E+00  0.2525252E-01  0.1127843E-03  0.0000000E+00  0.5221406E-03
  0.2878788E+00  0.0000000E+00  0.2525252E-01  0.1383617E-03  0.0000000E+00  0.5554570E-03
  0.2979798E+00  0.0000000E+00  0.2525252E-01  0.1507404E-03  0.0000000E+00  0.5879470E-03
  0.3080808E+00  0.0000000E+00  0.2525252E-01  0.1479932E-03  0.0000000E+00  0.6328701E-03
  0.3181818E+00  0.0000000E+00  0.2525252E-01  0.1510878E-03  0.0000000E+00  0.6960668E-03
  0.3282828E+00  0.0000000E+00  0.2525252E-01  0.1755396E-03  0.0000000E+00  0.7727877E-03
  0.3383838E+00  0.0000000E+00  0.2525252E-01  0.2237253E-03  0.0000000E+00  0.8553595E-03
  0.3484848E+00  0.0000000E+00  0.2525252E-01  0.2771264E-03  0.0000000E+00  0.9372894E-03
  0.3585859E+00  0.0000000E+00  0.2525252E-01  0.3693025E-03  0.0000000E+00  0.1016854E-02
  0.3686869E+00  0.0000000E+00  0.2525252E-01  0.5176426E-03  0.0000000E+00  0.1089826E-02
  0.3787879E+00  0.0000000E+00  0.2525252E-01  0.6379403E-03  0.0000000E+00  0.1123517E-02
  0.3888889E+00  0.0000000E+00  0.2525252E-01  0.6842684E-03  0.0000000E+00  0.1187139E-02
  0.3989899E+00  0.0000000E+00  0.2525252E-01 -0.2183660E-04  0.0000000E+00  0.1525005E-02
  0.4090909E+00  0.0000000E+00  0.2525252E-01 -0.3468975E-03  0.0000000E+00  0.1796612E-02
  0.4191919E+00  0.0000000E+00  0.2525252E-01 -0.1671251E-03  0.0000000E+00  0.1778701E-02
  0.4292929E+00  0.0000000E+00  0.2525252E-01 -0.2012058E-04  0.0000000E+00  0.1757609E-02
  0.4393939E+00  0.0000000E+00  0.2525252E-01 -0.3021344E-04  0.0000000E+00  0.1769614E-02
  0.4494950E+00  0.0000000E+00  0.2525252E-01  0.2404095E-04  0.0000000E+00  0.1761670E-02
  0.4595959E+00  0.0000000E+00  0.2525252E-01 -0.8927741E-04  0.0000000E+00  0.1740607E-02
  0.4696970E+00  0.0000000E+00  0.2525252E-01  0.1784510E-04  0.0000000E+00  0.1758721E-02
  0.4797980E+00  0.0000000E+00  0.2525252E-01  0.1136690E-03  0.0000000E+00  0.1793033E-02
  0.4898990E+00  0.0000000E+00  0.2525252E-01  0.1619439E-03  0.0000000E+00  0.1865166E-02
  0.5000000E+00  0.0000000E+00  0.2525252E-01  0.1850208E-04  0.0000000E+00  0.1866042E-02
  0.5101010E+00  0.0000000E+00  0.2525252E-01 -0.3266527E-03  0.0000000E+00  0.1743853E-02
  0.5202020E+00  0.0000000E+00  0.2525252E-01 -0.3055194E-03  0.0000000E+00  0.1627767E-02
  0.5303030E+00  0.0000000E+00  0.2525252E-01 -0.2465174E-03  0.0000000E+00  0.1539812E-02
  0.5404040E+00  0.0000000E+00  0.2525252E-01 -0.2122230E-03  0.0000000E+00  0.1452250E-02
  0.5505050E+00  0.0000000E+00  0.2525252E-01 -0.2212351E-03  0.0000000E+00  0.1359706E-02
  0.5606061E+00  0.0000000E+00  0.2525252E-01 -0.1855841E-03  0.0000000E+00  0.1243774E-02
  0.5707071E+00  0.0000000E+00  0.2525252E-01 -0.2436514E-03  0.0000000E+00  0.1070583E-02
  0.5808081E+00  0.0000000E+00  0.2525252E-01 -0.2790907E-03  0.0000000E+00  0.9466178E-03
  0.5909091E+00  0.0000000E+00  0.2525252E-01 -0.2236352E-03  0.0000000E+00  0.9033638E-03
  0.6010101E+00  0.0000000E+00  0.2525252E-01 -0.1804571E-03  0.0000000E+00  0.8494789E-03
  0.6111111E+00  0.0000000E+00  0.2525252E-01 -0.1493466E-03  0.0000000E+00  0.7939170E-03
  0.6212121E+00  0.0000000E+00  0.2525252E-01 -0.1266017E-03  0.0000000E+00  0.7421154E-03
  0.6313131E+00  0.0000000E+00  0.2525252E-01 -0.1095883E-03  0.0000000E+00  0.6955047E-03
  0.6414142E+00  0.0000000E+00  0.2525252E-01 -0.9662236E-04  0.0000000E+00  0.6538011E-03
  0.6515151E+00  0.0000000E+00  0.2525252E-01 -0.8657209E-04  0.0000000E+00  0.6162431E-03
  0.6616161E+00  0.0000000E+00  0.2525252E-01 -0.7862317E-04  0.0000000E+00  0.5820700E-03
  0.6717172E+00  0.0000000E+00  0.2525252E-01 -0.7216590E-04  0.0000000E+00  0.5506706E-03
  0.6818182E+00  0.0000000E+00  0.2525252E-01 -0.6674205E-04  0.0000000E+00  0.5216026E-03
  0.6919192E+00  0.0000000E+00  0.2525252E-01 -0.6201616E-04  0.0000000E+00  0.4945692E-03
  0.7020202E+00  0.0000000E+00  0.2525252E-01 -0.5775874E-04  0.0000000E+00  0.4693804E-03
  0.7121212E+00  0.0000000E+00  0.2525252E-01 -0.5383090E-04  0.0000000E+00  0.4459109E-03
  0.7222222E+00  0.0000000E+00  0.2525252E-01 -0.5016015E-04  0.0000000E+00  0.4240648E-03
  0.7323232E+00  0.0000000E+00  0.2525252E-01 -0.4671417E-04  0.0000000E+00  0.4037532E-03
  0.7424242E+00  0.0000000E+00  0.2525252E-01 -0.4348000E-04  0.0000000E+00  0.3848860E-03
  0.7525253E+00  0.0000000E+00  0.2525252E-01 -0.4045104E-04  0.0000000E+00  0.3673703E-03
  0.7626263E+00  0.0000000E+00  0.2525252E-01 -0.3762050E-04  0.0000000E+00  0.3511135E-03
  0.7727273E+00  0.0000000E+00  0.2525252E-01 -0.3497898E-04  0.0000000E+00  0.3360259E-03
  0.7828283E+00  0.0000000E+00  0.2525252E-01 -0.3251429E-04  0.0000000E+00  0.3220232E-03
  0.7929293E+00  0.0000000E+00  0.2525252E-01 -0.3021216E-04  0.0000000E+00  0.3090281E-03
  0.8030303E+00  0.0000000E+00  0.2525252E-01 -0.2805724E-04  0.0000000E+00  0.2969707E-03
  0.8131313E+00  0.0000000E+00  0.2525252E-01 -0.2603399E-04  0.0000000E+00  0.2857891E-03
  0.8232324E+00  0.0000000E+00  0.2525252E-01 -0.2412745E-04  0.0000000E+00  0.2754286E-03
  0.8333333E+00  0.0000000E+00  0.2525252E-01 -0.2232366E-04  0.0000000E+00  0.2658416E-03
  0.8434343E+00  0.0000000E+00  0.2525252E-01 -0.2061002E-04  0.0000000E+00  0.2569864E-03
  0.8535354E+00  0.0000000E+00  0.2525252E-01 -0.1897536E-04  0.0000000E+00  0.2488267E-03
  0.8636364E+00  0.0000000E+00  0.2525252E-01 -0.1740994E-04  0.0000000E+00  0.2413309E-03
  0.8737374E+00  0.0000000E+00  0.2525252E-01 -0.1590533E-04  0.0000000E+00  0.2344712E-03
  0.8838384E+00  0.0000000E+00  0.2525252E-01 -0.1445428E-04  0.0000000E+00  0.2282232E-03
  0.8939394E+00  0.0000000E+00  0.2525252E-01 -0.1305048E-04  0.0000000E+00  0.2225656E-03
  0.9040404E+00  0.0000000E+00  0.2525252E-01 -0.1168839E-04  0.0000000E+00  0.2174792E-03
  0.9141414E+00  0.0000000E+00  0.2525252E-01 -0.1036308E-04  0.0000000E+00  0.2129473E-03
  0.9242424E+00  0.0000000E+00  0.2525252E-01 -0.9070022E-05  0.0000000E+00  0.2089551E-03
  0.9343435E+00  0.0000000E+00  0.2525252E-01 -0.7805023E-05  0.0000000E+00  0.2054896E-03
  0.9444444E+00  0.0000000E+00  0.2525252E-01 -0.6564083E-05  0.0000000E+00  0.2025396E-03
  0.9545454E+00  0.0000000E+00  0.2525252E-01 -0.5343344E-05  0.0000000E+00  0.2000956E-03
  0.9646465E+00  0.0000000E+00  0.2525252E-01 -0.4139034E-05  0.0000000E+00  0.1981497E-03
  0.9747475E+00  0.0000000E+00  0.2525252E-01 -0.2947435E-05  0.0000000E+00  0.1966956E-03
  0.9848485E+00  0.0000000E+00  0.2525252E-01 -0.1764871E-05  0.0000000E+00  0.1957288E-03
  0.9974747E+00  0.0000000E+00  0.2525252E-01 -0.5876954E-06  0.0000000E+00  0.1952461E-03
  0.5050505E-02  0.0000000E+00  0.3535353E-01  0.9899364E-06  0.0000000E+00  0.1739652E-03
  0.1515152E-01  0.0000000E+00  0.3535353E-01  0.2975703E-05  0.0000000E+00  0.1745379E-03
  0.2525252E-01  0.0000000E+00  0.3535353E-01  0.4979272E-05  0.0000000E+00  0.1756866E-03
  0.3535353E-01  0.0000000E+00  0.3535353E-01  0.7012808E-05  0.0000000E+00  0.1774180E-03
  0.4545455E-01  0.0000000E+00  0.3535353E-01  0.9088863E-05  0.0000000E+00  0.1797426E-03
  0.5555556E-01  0.0000000E+00  0.3535353E-01  0.1122052E-04  0.0000000E+00  0.1826745E-03
  0.6565657E-01  0.0000000E+00  0.3535353E-01  0.1342155E-04  0.0000000E+00  0.1862318E-03
  0.7575758E-01  0.0000000E+00  0.3535353E-01  0.1570661E-04  0.0000000E+00  0.1904366E-03
  0.8585858E-01  0.0000000E+00  0.3535353E-01  0.1809145E-04  0.0000000E+00  0.1953155E-03
  0.9595960E-01  0.0000000E+00  0.3535353E-01  0.2059321E-04  0.0000000E+00  0.2008998E-03
  0.1060606E+00  0.0000000E+00  0.3535353E-01  0.2323073E-04  0.0000000E+00  0.2072258E-03
  0.1161616E+00  0.0000000E+00  0.3535353E-01  0.2602499E-04  0.0000000E+00  0.2143355E-03
  0.1262626E+00  0.0000000E+00  0.3535353E-01  0.2899965E-04  0.0000000E+00  0.2222769E-03
  0.1363636E+00  0.0000000E+00  0.3535353E-01  0.3218182E-04  0.0000000E+00  0.2311051E-03
  0.1464646E+00  0.0000000E+00  0.3535353E-01  0.3560295E-04  0.0000000E+00  0.2408826E-03
  0.1565657E+00  0.0000000E+00  0.3535353E-01  0.3930017E-04  0.0000000E+00  0.2516809E-03
  0.1666667E+00  0.0000000E+00  0.3535353E-01  0.4331801E-04  0.0000000E+00  0.2635817E-03
  0.1767677E+00  0.0000000E+00  0.3535353E-01  0.4771084E-04  0.0000000E+00  0.2766782E-03
  0.1868687E+00  0.0000000E+00  0.3535353E-01  0.5254622E-04  0.0000000E+00  0.2910773E-03
  0.1969697E+00  0.0000000E+00  0.3535353E-01  0.5790973E-04  0.0000000E+00  0.3069013E-03
  0.2070707E+00  0.0000000E+00  0.3535353E-01  0.6391197E-04  0.0000000E+00  0.3242906E-03
  0.2171717E+00  0.0000000E+00  0.3535353E-01  0.7069900E-04  0.0000000E+00  0.3434054E-03
  0.2272727E+00  0.0000000E+00  0.3535353E-01  0.7846808E-04  0.0000000E+00  0.3644257E-03
  0.2373737E+00  0.0000000E+00  0.3535353E-01  0.8749125E-04  0.0000000E+00  0.3875485E-03
  0.2474747E+00  0.0000000E+00  0.3535353E-01  0.9814992E-04  0.0000000E+00  0.4129746E-03
  0.2575758E+00  0.0000000E+00  0.3535353E-01  0.1109791E-03  0.0000000E+00  0.4408742E-03
  0.2676768E+00  0.0000000E+00  0.3535353E-01  0.1266947E-03  0.0000000E+00  0.4713106E-03
  0.2777778E+00  0.0000000E+00  0.3535353E-01  0.1460512E-03  0.0000000E+00  0.5041259E-03
  0.2878788E+00  0.0000000E+00  0.3535353E-01  0.1687873E-03  0.0000000E+00  0.5391417E-03
  0.2979798E+00  0.0000000E+00  0.3535353E-01  0.1881247E-03  0.0000000E+00  0.5797240E-03