title = "dataset water"
variables = "x", "y", "z", "vx", "vy", "vz"
zone t = "velocities, solution time =  2.900E+01 days        " i =   99, j =   99, k =    1,  f=point
  0.5050505E-02  0.0000000E+00  0.5050505E-02  0.3622878E-08  0.0000000E+00 -0.6925952E-05
  0.1515152E-01  0.0000000E+00  0.5050505E-02  0.1088378E-07  0.0000000E+00 -0.6911433E-05
  0.2525252E-01  0.0000000E+00  0.5050505E-02  0.1819019E-07  0.0000000E+00 -0.6882335E-05
  0.3535353E-01  0.0000000E+00  0.5050505E-02  0.2557275E-07  0.0000000E+00 -0.6838535E-05
  0.4545455E-01  0.0000000E+00  0.5050505E-02  0.3306252E-07  0.0000000E+00 -0.6779851E-05
  0.5555556E-01  0.0000000E+00  0.5050505E-02  0.4069115E-07  0.0000000E+00 -0.6706037E-05
  0.6565657E-01  0.0000000E+00  0.5050505E-02  0.4849107E-07  0.0000000E+00 -0.6616782E-05
  0.7575758E-01  0.0000000E+00  0.5050505E-02  0.5649563E-07  0.0000000E+00 -0.6511711E-05
  0.8585858E-01  0.0000000E+00  0.5050505E-02  0.6473929E-07  0.0000000E+00 -0.6390381E-05
  0.9595960E-01  0.0000000E+00  0.5050505E-02  0.7325782E-07  0.0000000E+00 -0.6252278E-05
  0.1060606E+00  0.0000000E+00  0.5050505E-02  0.8208842E-07  0.0000000E+00 -0.6096816E-05
  0.1161616E+00  0.0000000E+00  0.5050505E-02  0.9126991E-07  0.0000000E+00 -0.5923332E-05
  0.1262626E+00  0.0000000E+00  0.5050505E-02  0.1008429E-06  0.0000000E+00 -0.5731084E-05
  0.1363636E+00  0.0000000E+00  0.5050505E-02  0.1108499E-06  0.0000000E+00 -0.5519248E-05
  0.1464646E+00  0.0000000E+00  0.5050505E-02  0.1213356E-06  0.0000000E+00 -0.5286912E-05
  0.1565657E+00  0.0000000E+00  0.5050505E-02  0.1323466E-06  0.0000000E+00 -0.5033073E-05
  0.1666667E+00  0.0000000E+00  0.5050505E-02  0.1439317E-06  0.0000000E+00 -0.4756633E-05
  0.1767677E+00  0.0000000E+00  0.5050505E-02  0.1561421E-06  0.0000000E+00 -0.4456396E-05
  0.1868687E+00  0.0000000E+00  0.5050505E-02  0.1690306E-06  0.0000000E+00 -0.4131058E-05
  0.1969697E+00  0.0000000E+00  0.5050505E-02  0.1826519E-06  0.0000000E+00 -0.3779213E-05
  0.2070707E+00  0.0000000E+00  0.5050505E-02  0.1970621E-06  0.0000000E+00 -0.3399341E-05
  0.2171717E+00  0.0000000E+00  0.5050505E-02  0.2123176E-06  0.0000000E+00 -0.2989811E-05
  0.2272727E+00  0.0000000E+00  0.5050505E-02  0.2284743E-06  0.0000000E+00 -0.2548882E-05
  0.2373737E+00  0.0000000E+00  0.5050505E-02  0.2455862E-06  0.0000000E+00 -0.2074701E-05
  0.2474747E+00  0.0000000E+00  0.5050505E-02  0.2637028E-06  0.0000000E+00 -0.1565315E-05
  0.2575758E+00  0.0000000E+00  0.5050505E-02  0.2828663E-06  0.0000000E+00 -0.1018678E-05
  0.2676768E+00  0.0000000E+00  0.5050505E-02  0.3031070E-06  0.0000000E+00 -0.4326742E-06
  0.2777778E+00  0.0000000E+00  0.5050505E-02  0.3244391E-06  0.0000000E+00  0.1956309E-06
  0.2878788E+00  0.0000000E+00  0.5050505E-02  0.3468064E-06  0.0000000E+00  0.8686656E-06
  0.2979798E+00  0.0000000E+00  0.5050505E-02  0.3702235E-06  0.0000000E+00  0.1587867E-05
  0.3080808E+00  0.0000000E+00  0.5050505E-02  0.3946017E-06  0.0000000E+00  0.2355076E-05
  0.3181818E+00  0.0000000E+00  0.5050505E-02  0.4197942E-06  0.0000000E+00  0.3172088E-05
  0.3282828E+00  0.0000000E+00  0.5050505E-02  0.4455768E-06  0.0000000E+00  0.4040325E-05
  0.3383838E+00  0.0000000E+00  0.5050505E-02  0.4716237E-06  0.0000000E+00  0.4960661E-05
  0.3484848E+00  0.0000000E+00  0.5050505E-02  0.4974799E-06  0.0000000E+00  0.5933187E-05
  0.3585859E+00  0.0000000E+00  0.5050505E-02  0.5225311E-06  0.0000000E+00  0.6956922E-05
  0.3686869E+00  0.0000000E+00  0.5050505E-02  0.5459674E-06  0.0000000E+00  0.8029456E-05
  0.3787879E+00  0.0000000E+00  0.5050505E-02  0.5667508E-06  0.0000000E+00  0.9146523E-05
  0.3888889E+00  0.0000000E+00  0.5050505E-02  0.5835899E-06  0.0000000E+00  0.1030152E-04
  0.3989899E+00  0.0000000E+00  0.5050505E-02  0.5949326E-06  0.0000000E+00  0.1148497E-04
  0.4090909E+00  0.0000000E+00  0.5050505E-02  0.5989906E-06  0.0000000E+00  0.1268407E-04
  0.4191919E+00  0.0000000E+00  0.5050505E-02  0.5938145E-06  0.0000000E+00  0.1388222E-04
  0.4292929E+00  0.0000000E+00  0.5050505E-02  0.5774402E-06  0.0000000E+00  0.1505889E-04
  0.4393939E+00  0.0000000E+00  0.5050505E-02  0.5481168E-06  0.0000000E+00  0.1618982E-04
  0.4494950E+00  0.0000000E+00  0.5050505E-02  0.5046149E-06  0.0000000E+00  0.1724771E-04
  0.4595959E+00  0.0000000E+00  0.5050505E-02  0.4465758E-06  0.0000000E+00  0.1820370E-04
  0.4696970E+00  0.0000000E+00  0.5050505E-02  0.3748226E-06  0.0000000E+00  0.1902933E-04
  0.4797980E+00  0.0000000E+00  0.5050505E-02  0.2915157E-06  0.0000000E+00  0.1969917E-04
  0.4898990E+00  0.0000000E+00  0.5050505E-02  0.2000446E-06  0.0000000E+00  0.2019335E-04
  0.5000000E+00  0.0000000E+00  0.5050505E-02  0.1046204E-06  0.0000000E+00  0.2049966E-04
  0.5101010E+00  0.0000000E+00  0.5050505E-02  0.9664822E-08  0.0000000E+00  0.2061456E-04
  0.5202020E+00  0.0000000E+00  0.5050505E-02 -0.8080795E-07  0.0000000E+00  0.2054304E-04
  0.5303030E+00  0.0000000E+00  0.5050505E-02 -0.1636428E-06  0.0000000E+00  0.2029726E-04
  0.5404040E+00  0.0000000E+00  0.5050505E-02 -0.2367462E-06  0.0000000E+00  0.1989473E-04
  0.5505050E+00  0.0000000E+00  0.5050505E-02 -0.2990618E-06  0.0000000E+00  0.1935608E-04
  0.5606061E+00  0.0000000E+00  0.5050505E-02 -0.3504013E-06  0.0000000E+00  0.1870323E-04
  0.5707071E+00  0.0000000E+00  0.5050505E-02 -0.3912148E-06  0.0000000E+00  0.1795781E-04
  0.5808081E+00  0.0000000E+00  0.5050505E-02 -0.4223615E-06  0.0000000E+00  0.1714015E-04
  0.5909091E+00  0.0000000E+00  0.5050505E-02 -0.4449175E-06  0.0000000E+00  0.1626860E-04
  0.6010101E+00  0.0000000E+00  0.5050505E-02 -0.4600314E-06  0.0000000E+00  0.1535930E-04
  0.6111111E+00  0.0000000E+00  0.5050505E-02 -0.4688270E-06  0.0000000E+00  0.1442609E-04
  0.6212121E+00  0.0000000E+00  0.5050505E-02 -0.4723457E-06  0.0000000E+00  0.1348061E-04
  0.6313131E+00  0.0000000E+00  0.5050505E-02 -0.4715169E-06  0.0000000E+00  0.1253253E-04
  0.6414142E+00  0.0000000E+00  0.5050505E-02 -0.4671486E-06  0.0000000E+00  0.1158979E-04
  0.6515151E+00  0.0000000E+00  0.5050505E-02 -0.4599304E-06  0.0000000E+00  0.1065879E-04
  0.6616161E+00  0.0000000E+00  0.5050505E-02 -0.4504424E-06  0.0000000E+00  0.9744665E-05
  0.6717172E+00  0.0000000E+00  0.5050505E-02 -0.4391684E-06  0.0000000E+00  0.8851488E-05
  0.6818182E+00  0.0000000E+00  0.5050505E-02 -0.4265088E-06  0.0000000E+00  0.7982432E-05
  0.6919192E+00  0.0000000E+00  0.5050505E-02 -0.4127933E-06  0.0000000E+00  0.7139942E-05
  0.7020202E+00  0.0000000E+00  0.5050505E-02 -0.3982928E-06  0.0000000E+00  0.6325856E-05
  0.7121212E+00  0.0000000E+00  0.5050505E-02 -0.3832292E-06  0.0000000E+00  0.5541519E-05
  0.7222222E+00  0.0000000E+00  0.5050505E-02 -0.3677839E-06  0.0000000E+00  0.4787870E-05
  0.7323232E+00  0.0000000E+00  0.5050505E-02 -0.3521043E-06  0.0000000E+00  0.4065519E-05
  0.7424242E+00  0.0000000E+00  0.5050505E-02 -0.3363106E-06  0.0000000E+00  0.3374807E-05
  0.7525253E+00  0.0000000E+00  0.5050505E-02 -0.3205015E-06  0.0000000E+00  0.2715857E-05
  0.7626263E+00  0.0000000E+00  0.5050505E-02 -0.3047570E-06  0.0000000E+00  0.2088611E-05
  0.7727273E+00  0.0000000E+00  0.5050505E-02 -0.2891413E-06  0.0000000E+00  0.1492869E-05
  0.7828283E+00  0.0000000E+00  0.5050505E-02 -0.2737056E-06  0.0000000E+00  0.9283134E-06
  0.7929293E+00  0.0000000E+00  0.5050505E-02 -0.2584906E-06  0.0000000E+00  0.3945366E-06
  0.8030303E+00  0.0000000E+00  0.5050505E-02 -0.2435272E-06  0.0000000E+00 -0.1084345E-06
  0.8131313E+00  0.0000000E+00  0.5050505E-02 -0.2287695E-06  0.0000000E+00 -0.5809351E-06
  0.8232324E+00  0.0000000E+00  0.5050505E-02 -0.2142978E-06  0.0000000E+00 -0.1024034E-05
  0.8333333E+00  0.0000000E+00  0.5050505E-02 -0.2001176E-06  0.0000000E+00 -0.1438501E-05
  0.8434343E+00  0.0000000E+00  0.5050505E-02 -0.1862310E-06  0.0000000E+00 -0.1824918E-05
  0.8535354E+00  0.0000000E+00  0.5050505E-02 -0.1726363E-06  0.0000000E+00 -0.2183865E-05
  0.8636364E+00  0.0000000E+00  0.5050505E-02 -0.1593278E-06  0.0000000E+00 -0.2515918E-05
  0.8737374E+00  0.0000000E+00  0.5050505E-02 -0.1462971E-06  0.0000000E+00 -0.2821637E-05
  0.8838384E+00  0.0000000E+00  0.5050505E-02 -0.1335326E-06  0.0000000E+00 -0.3101563E-05
  0.8939394E+00  0.0000000E+00  0.5050505E-02 -0.1210204E-06  0.0000000E+00 -0.3356213E-05
  0.9040404E+00  0.0000000E+00  0.5050505E-02 -0.1087444E-06  0.0000000E+00 -0.3586073E-05
  0.9141414E+00  0.0000000E+00  0.5050505E-02 -0.9668686E-07  0.0000000E+00 -0.3791594E-05
  0.9242424E+00  0.0000000E+00  0.5050505E-02 -0.8482835E-07  0.0000000E+00 -0.3973194E-05
  0.9343435E+00  0.0000000E+00  0.5050505E-02 -0.7314823E-07  0.0000000E+00 -0.4131247E-05
  0.9444444E+00  0.0000000E+00  0.5050505E-02 -0.6162472E-07  0.0000000E+00 -0.4266089E-05
  0.9545454E+00  0.0000000E+00  0.5050505E-02 -0.5023517E-07  0.0000000E+00 -0.4378007E-05
  0.9646465E+00  0.0000000E+00  0.5050505E-02 -0.3895615E-07  0.0000000E+00 -0.4467246E-05
  0.9747475E+00  0.0000000E+00  0.5050505E-02 -0.2776367E-07  0.0000000E+00 -0.4534003E-05
  0.9848485E+00  0.0000000E+00  0.5050505E-02 -0.1663329E-07  0.0000000E+00 -0.4578424E-05
  0.9974747E+00  0.0000000E+00  0.5050505E-02 -0.5540276E-08  0.0000000E+00 -0.4600610E-05
  0.5050505E-02  0.0000000E+00  0.1515152E-01  0.1086778E-07  0.0000000E+00 -0.6905078E-05
  0.1515152E-01  0.0000000E+00  0.1515152E-01  0.3264874E-07  0.0000000E+00 -0.6890520E-05
  0.2525252E-01  0.0000000E+00  0.1515152E-01  0.5456622E-07  0.0000000E+00 -0.6861344E-05
  0.3535353E-01  0.0000000E+00  0.1515152E-01  0.7671207E-07  0.0000000E+00 -0.6817428E-05
  0.4545455E-01  0.0000000E+00  0.1515152E-01  0.9917947E-07  0.0000000E+00 -0.6758588E-05
  0.5555556E-01  0.0000000E+00  0.1515152E-01  0.1220633E-06  0.0000000E+00 -0.6684577E-05
  0.6565657E-01  0.0000000E+00  0.1515152E-01  0.1454609E-06  0.0000000E+00 -0.6595087E-05
  0.7575758E-01  0.0000000E+00  0.1515152E-01  0.1694723E-06  0.0000000E+00 -0.6489739E-05
  0.8585858E-01  0.0000000E+00  0.1515152E-01  0.1942008E-06  0.0000000E+00 -0.6368089E-05
  0.9595960E-01  0.0000000E+00  0.1515152E-01  0.2197538E-06  0.0000000E+00 -0.6229624E-05
  0.1060606E+00  0.0000000E+00  0.1515152E-01  0.2462428E-06  0.0000000E+00 -0.6073755E-05
  0.1161616E+00  0.0000000E+00  0.1515152E-01  0.2737843E-06  0.0000000E+00 -0.5899817E-05
  0.1262626E+00  0.0000000E+00  0.1515152E-01  0.3025004E-06  0.0000000E+00 -0.5707069E-05
  0.1363636E+00  0.0000000E+00  0.1515152E-01  0.3325186E-06  0.0000000E+00 -0.5494682E-05
  0.1464646E+00  0.0000000E+00  0.1515152E-01  0.3639729E-06  0.0000000E+00 -0.5261742E-05
  0.1565657E+00  0.0000000E+00  0.1515152E-01  0.3970036E-06  0.0000000E+00 -0.5007243E-05
  0.1666667E+00  0.0000000E+00  0.1515152E-01  0.4317577E-06  0.0000000E+00 -0.4730083E-05
  0.1767677E+00  0.0000000E+00  0.1515152E-01  0.4683885E-06  0.0000000E+00 -0.4429059E-05
  0.1868687E+00  0.0000000E+00  0.1515152E-01  0.5070557E-06  0.0000000E+00 -0.4102862E-05
  0.1969697E+00  0.0000000E+00  0.1515152E-01  0.5479242E-06  0.0000000E+00 -0.3750077E-05
  0.2070707E+00  0.0000000E+00  0.1515152E-01  0.5911629E-06  0.0000000E+00 -0.3369173E-05
  0.2171717E+00  0.0000000E+00  0.1515152E-01  0.6369429E-06  0.0000000E+00 -0.2958507E-05
  0.2272727E+00  0.0000000E+00  0.1515152E-01  0.6854341E-06  0.0000000E+00 -0.2516319E-05
  0.2373737E+00  0.0000000E+00  0.1515152E-01  0.7368008E-06  0.0000000E+00 -0.2040735E-05
  0.2474747E+00  0.0000000E+00  0.1515152E-01  0.7911957E-06  0.0000000E+00 -0.1529771E-05
  0.2575758E+00  0.0000000E+00  0.1515152E-01  0.8487503E-06  0.0000000E+00 -0.9813440E-06
  0.2676768E+00  0.0000000E+00  0.1515152E-01  0.9095600E-06  0.0000000E+00 -0.3932901E-06
  0.2777778E+00  0.0000000E+00  0.1515152E-01  0.9736580E-06  0.0000000E+00  0.2374335E-06
  0.2878788E+00  0.0000000E+00  0.1515152E-01  0.1040921E-05  0.0000000E+00  0.9132762E-06
  0.2979798E+00  0.0000000E+00  0.1515152E-01  0.1111387E-05  0.0000000E+00  0.1635730E-05
  0.3080808E+00  0.0000000E+00  0.1515152E-01  0.1184803E-05  0.0000000E+00  0.2406820E-05
  0.3181818E+00  0.0000000E+00  0.1515152E-01  0.1260750E-05  0.0000000E+00  0.3228502E-05
  0.3282828E+00  0.0000000E+00  0.1515152E-01  0.1338576E-05  0.0000000E+00  0.4102398E-05
  0.3383838E+00  0.0000000E+00  0.1515152E-01  0.1417331E-05  0.0000000E+00  0.5029631E-05
  0.3484848E+00  0.0000000E+00  0.1515152E-01  0.1495681E-05  0.0000000E+00  0.6010597E-05
  0.3585859E+00  0.0000000E+00  0.1515152E-01  0.1571812E-05  0.0000000E+00  0.7044675E-05
  0.3686869E+00  0.0000000E+00  0.1515152E-01  0.1643323E-05  0.0000000E+00  0.8129871E-05
  0.3787879E+00  0.0000000E+00  0.1515152E-01  0.1707116E-05  0.0000000E+00  0.9262376E-05
  0.3888889E+00  0.0000000E+00  0.1515152E-01  0.1759315E-05  0.0000000E+00  0.1043605E-04
  0.3989899E+00  0.0000000E+00  0.1515152E-01  0.1795225E-05  0.0000000E+00  0.1164184E-04
  0.4090909E+00  0.0000000E+00  0.1515152E-01  0.1809390E-05  0.0000000E+00  0.1286721E-04
  0.4191919E+00  0.0000000E+00  0.1515152E-01  0.1795799E-05  0.0000000E+00  0.1409558E-04
  0.4292929E+00  0.0000000E+00  0.1515152E-01  0.1748313E-05  0.0000000E+00  0.1530602E-04
  0.4393939E+00  0.0000000E+00  0.1515152E-01  0.1661355E-05  0.0000000E+00  0.1647326E-04
  0.4494950E+00  0.0000000E+00  0.1515152E-01  0.1530879E-05  0.0000000E+00  0.1756834E-04
  0.4595959E+00  0.0000000E+00  0.1515152E-01  0.1355499E-05  0.0000000E+00  0.1856000E-04
  0.4696970E+00  0.0000000E+00  0.1515152E-01  0.1137542E-05  0.0000000E+00  0.1941698E-04
  0.4797980E+00  0.0000000E+00  0.1515152E-01  0.8836265E-06  0.0000000E+00  0.2011101E-04
  0.4898990E+00  0.0000000E+00  0.1515152E-01  0.6043659E-06  0.0000000E+00  0.2062001E-04
  0.5000000E+00  0.0000000E+00  0.1515152E-01  0.3130468E-06  0.0000000E+00  0.2093065E-04
  0.5101010E+00  0.0000000E+00  0.1515152E-01  0.2359192E-07  0.0000000E+00  0.2103964E-04
  0.5202020E+00  0.0000000E+00  0.1515152E-01 -0.2514791E-06  0.0000000E+00  0.2095336E-04
  0.5303030E+00  0.0000000E+00  0.1515152E-01 -0.5024848E-06  0.0000000E+00  0.2068615E-04
  0.5404040E+00  0.0000000E+00  0.1515152E-01 -0.7231623E-06  0.0000000E+00  0.2025783E-04
  0.5505050E+00  0.0000000E+00  0.1515152E-01 -0.9105143E-06  0.0000000E+00  0.1969124E-04
  0.5606061E+00  0.0000000E+00  0.1515152E-01 -0.1064216E-05  0.0000000E+00  0.1901004E-04
  0.5707071E+00  0.0000000E+00  0.1515152E-01 -0.1185859E-05  0.0000000E+00  0.1823714E-04
  0.5808081E+00  0.0000000E+00  0.1515152E-01 -0.1278230E-05  0.0000000E+00  0.1739368E-04
  0.5909091E+00  0.0000000E+00  0.1515152E-01 -0.1344715E-05  0.0000000E+00  0.1649846E-04
  0.6010101E+00  0.0000000E+00  0.1515152E-01 -0.1388868E-05  0.0000000E+00  0.1556777E-04
  0.6111111E+00  0.0000000E+00  0.1515152E-01 -0.1414130E-05  0.0000000E+00  0.1461542E-04
  0.6212121E+00  0.0000000E+00  0.1515152E-01 -0.1423660E-05  0.0000000E+00  0.1365295E-04
  0.6313131E+00  0.0000000E+00  0.1515152E-01 -0.1420264E-05  0.0000000E+00  0.1268982E-04
  0.6414142E+00  0.0000000E+00  0.1515152E-01 -0.1406366E-05  0.0000000E+00  0.1173375E-04
  0.6515151E+00  0.0000000E+00  0.1515152E-01 -0.1384028E-05  0.0000000E+00  0.1079094E-04
  0.6616161E+00  0.0000000E+00  0.1515152E-01 -0.1354980E-05  0.0000000E+00  0.9866328E-05
  0.6717172E+00  0.0000000E+00  0.1515152E-01 -0.1320661E-05  0.0000000E+00  0.8963806E-05
  0.6818182E+00  0.0000000E+00  0.1515152E-01 -0.1282259E-05  0.0000000E+00  0.8086395E-05
  0.6919192E+00  0.0000000E+00  0.1515152E-01 -0.1240754E-05  0.0000000E+00  0.7236408E-05
  0.7020202E+00  0.0000000E+00  0.1515152E-01 -0.1196946E-05  0.0000000E+00  0.6415571E-05
  0.7121212E+00  0.0000000E+00  0.1515152E-01 -0.1151494E-05  0.0000000E+00  0.5625134E-05
  0.7222222E+00  0.0000000E+00  0.1515152E-01 -0.1104933E-05  0.0000000E+00  0.4865958E-05
  0.7323232E+00  0.0000000E+00  0.1515152E-01 -0.1057701E-05  0.0000000E+00  0.4138586E-05
  0.7424242E+00  0.0000000E+00  0.1515152E-01 -0.1010153E-05  0.0000000E+00  0.3443302E-05
  0.7525253E+00  0.0000000E+00  0.1515152E-01 -0.9625800E-06  0.0000000E+00  0.2780182E-05
  0.7626263E+00  0.0000000E+00  0.1515152E-01 -0.9152189E-06  0.0000000E+00  0.2149127E-05
  0.7727273E+00  0.0000000E+00  0.1515152E-01 -0.8682596E-06  0.0000000E+00  0.1549904E-05
  0.7828283E+00  0.0000000E+00  0.1515152E-01 -0.8218537E-06  0.0000000E+00  0.9821663E-06
  0.7929293E+00  0.0000000E+00  0.1515152E-01 -0.7761212E-06  0.0000000E+00  0.4454798E-06
  0.8030303E+00  0.0000000E+00  0.1515152E-01 -0.7311552E-06  0.0000000E+00 -0.6021992E-07
  0.8131313E+00  0.0000000E+00  0.1515152E-01 -0.6868202E-06  0.0000000E+00 -0.5352225E-06
  0.8232324E+00  0.0000000E+00  0.1515152E-01 -0.6433469E-06  0.0000000E+00 -0.9805486E-06
  0.8333333E+00  0.0000000E+00  0.1515152E-01 -0.6007530E-06  0.0000000E+00 -0.1397052E-05
  0.8434343E+00  0.0000000E+00  0.1515152E-01 -0.5590453E-06  0.0000000E+00 -0.1785325E-05
  0.8535354E+00  0.0000000E+00  0.1515152E-01 -0.5182182E-06  0.0000000E+00 -0.2145961E-05
  0.8636364E+00  0.0000000E+00  0.1515152E-01 -0.4782547E-06  0.0000000E+00 -0.2479545E-05
  0.8737374E+00  0.0000000E+00  0.1515152E-01 -0.4391284E-06  0.0000000E+00 -0.2786650E-05
  0.8838384E+00  0.0000000E+00  0.1515152E-01 -0.4008043E-06  0.0000000E+00 -0.3067823E-05
  0.8939394E+00  0.0000000E+00  0.1515152E-01 -0.3632402E-06  0.0000000E+00 -0.3323591E-05
  0.9040404E+00  0.0000000E+00  0.1515152E-01 -0.3263876E-06  0.0000000E+00 -0.3554445E-05
  0.9141414E+00  0.0000000E+00  0.1515152E-01 -0.2901926E-06  0.0000000E+00 -0.3760845E-05
  0.9242424E+00  0.0000000E+00  0.1515152E-01 -0.2545969E-06  0.0000000E+00 -0.3943213E-05
  0.9343435E+00  0.0000000E+00  0.1515152E-01 -0.2195381E-06  0.0000000E+00 -0.4101928E-05
  0.9444444E+00  0.0000000E+00  0.1515152E-01 -0.1849507E-06  0.0000000E+00 -0.4237329E-05
  0.9545454E+00  0.0000000E+00  0.1515152E-01 -0.1507664E-06  0.0000000E+00 -0.4349708E-05
  0.9646465E+00  0.0000000E+00  0.1515152E-01 -0.1169148E-06  0.0000000E+00 -0.4439313E-05
  0.9747475E+00  0.0000000E+00  0.1515152E-01 -0.8332351E-07  0.0000000E+00 -0.4506342E-05
  0.9848485E+00  0.0000000E+00  0.1515152E-01 -0.4991914E-07  0.0000000E+00 -0.4550944E-05
  0.9974747E+00  0.0000000E+00  0.1515152E-01 -0.1662721E-07  0.0000000E+00 -0.4573220E-05
  0.5050505E-02  0.0000000E+00  0.2525252E-01  0.1812068E-07  0.0000000E+00 -0.6863353E-05
  0.1515152E-01  0.0000000E+00  0.2525252E-01  0.5443774E-07  0.0000000E+00 -0.6848718E-05
  0.2525252E-01  0.0000000E+00  0.2525252E-01  0.9098232E-07  0.0000000E+00 -0.6819387E-05
  0.3535353E-01  0.0000000E+00  0.2525252E-01  0.1279075E-06  0.0000000E+00 -0.6775237E-05
  0.4545455E-01  0.0000000E+00  0.2525252E-01  0.1653686E-06  0.0000000E+00 -0.6716084E-05
  0.5555556E-01  0.0000000E+00  0.2525252E-01  0.2035239E-06  0.0000000E+00 -0.6641682E-05
  0.6565657E-01  0.0000000E+00  0.2525252E-01  0.2425353E-06  0.0000000E+00 -0.6551718E-05
  0.7575758E-01  0.0000000E+00  0.2525252E-01  0.2825697E-06  0.0000000E+00 -0.6445814E-05
  0.8585858E-01  0.0000000E+00  0.2525252E-01  0.3237995E-06  0.0000000E+00 -0.6323525E-05
  0.9595960E-01  0.0000000E+00  0.2525252E-01  0.3664035E-06  0.0000000E+00 -0.6184334E-05
  0.1060606E+00  0.0000000E+00  0.2525252E-01  0.4105680E-06  0.0000000E+00 -0.6027649E-05
  0.1161616E+00  0.0000000E+00  0.2525252E-01  0.4564873E-06  0.0000000E+00 -0.5852805E-05
  0.1262626E+00  0.0000000E+00  0.2525252E-01  0.5043650E-06  0.0000000E+00 -0.5659054E-05
  0.1363636E+00  0.0000000E+00  0.2525252E-01  0.5544143E-06  0.0000000E+00 -0.5445565E-05
  0.1464646E+00  0.0000000E+00  0.2525252E-01  0.6068591E-06  0.0000000E+00 -0.5211416E-05
  0.1565657E+00  0.0000000E+00  0.2525252E-01  0.6619341E-06  0.0000000E+00 -0.4955597E-05
  0.1666667E+00  0.0000000E+00  0.2525252E-01  0.7198854E-06  0.0000000E+00 -0.4676996E-05
  0.1767677E+00  0.0000000E+00  0.2525252E-01  0.7809703E-06  0.0000000E+00 -0.4374400E-05
  0.1868687E+00  0.0000000E+00  0.2525252E-01  0.8454570E-06  0.0000000E+00 -0.4046489E-05
  0.1969697E+00  0.0000000E+00  0.2525252E-01  0.9136232E-06  0.0000000E+00 -0.3691829E-05
  0.2070707E+00  0.0000000E+00  0.2525252E-01  0.9857544E-06  0.0000000E+00 -0.3308869E-05
  0.2171717E+00  0.0000000E+00  0.2525252E-01  0.1062141E-05  0.0000000E+00 -0.2895941E-05
  0.2272727E+00  0.0000000E+00  0.2525252E-01  0.1143072E-05  0.0000000E+00 -0.2451250E-05
  0.2373737E+00  0.0000000E+00  0.2525252E-01  0.1228831E-05  0.0000000E+00 -0.1972880E-05
  0.2474747E+00  0.0000000E+00  0.2525252E-01  0.1319686E-05  0.0000000E+00 -0.1458789E-05
  0.2575758E+00  0.0000000E+00  0.2525252E-01  0.1415872E-05  0.0000000E+00 -0.9068201E-06
  0.2676768E+00  0.0000000E+00  0.2525252E-01  0.1517581E-05  0.0000000E+00 -0.3146970E-06
  0.2777778E+00  0.0000000E+00  0.2525252E-01  0.1624762E-05  0.0000000E+00  0.3207978E-06
  0.2878788E+00  0.0000000E+00  0.2525252E-01  0.1737472E-05  0.0000000E+00  0.1002153E-05
  0.2979798E+00  0.0000000E+00  0.2525252E-01  0.1855682E-05  0.0000000E+00  0.1731002E-05
  0.3080808E+00  0.0000000E+00  0.2525252E-01  0.1979031E-05  0.0000000E+00  0.2509719E-05
  0.3181818E+00  0.0000000E+00  0.2525252E-01  0.2106886E-05  0.0000000E+00  0.3340566E-05
  0.3282828E+00  0.0000000E+00  0.2525252E-01  0.2238238E-05  0.0000000E+00  0.4225566E-05
  0.3383838E+00  0.0000000E+00  0.2525252E-01  0.2371592E-05  0.0000000E+00  0.5166334E-05
  0.3484848E+00  0.0000000E+00  0.2525252E-01  0.2504824E-05  0.0000000E+00  0.6163872E-05
  0.3585859E+00  0.0000000E+00  0.2525252E-01  0.2635016E-05  0.0000000E+00  0.7218291E-05
  0.3686869E+00  0.0000000E+00  0.2525252E-01  0.2758261E-05  0.0000000E+00  0.8328446E-05
  0.3787879E+00  0.0000000E+00  0.2525252E-01  0.2869464E-05  0.0000000E+00  0.9491476E-05
  0.3888889E+00  0.0000000E+00  0.2525252E-01  0.2962165E-05  0.0000000E+00  0.1070223E-04
  0.3989899E+00  0.0000000E+00  0.2525252E-01  0.3028429E-05  0.0000000E+00  0.1195260E-04
  0.4090909E+00  0.0000000E+00  0.2525252E-01  0.3058870E-05  0.0000000E+00  0.1323072E-04
  0.4191919E+00  0.0000000E+00  0.2525252E-01  0.3042930E-05  0.0000000E+00  0.1452021E-04
  0.4292929E+00  0.0000000E+00  0.2525252E-01  0.2969537E-05  0.0000000E+00  0.1579947E-04
  0.4393939E+00  0.0000000E+00  0.2525252E-01  0.2828271E-05  0.0000000E+00  0.1704135E-04
  0.4494950E+00  0.0000000E+00  0.2525252E-01  0.2611100E-05  0.0000000E+00  0.1821347E-04
  0.4595959E+00  0.0000000E+00  0.2525252E-01  0.2314557E-05  0.0000000E+00  0.1927958E-04
  0.4696970E+00  0.0000000E+00  0.2525252E-01  0.1941939E-05  0.0000000E+00  0.2020231E-04
  0.4797980E+00  0.0000000E+00  0.2525252E-01  0.1504706E-05  0.0000000E+00  0.2094710E-04
  0.4898990E+00  0.0000000E+00  0.2525252E-01  0.1022152E-05  0.0000000E+00  0.2148686E-04
  0.5000000E+00  0.0000000E+00  0.2525252E-01  0.5188212E-06  0.0000000E+00  0.2180586E-04
  0.5101010E+00  0.0000000E+00  0.2525252E-01  0.2031330E-07  0.0000000E+00  0.2190146E-04
  0.5202020E+00  0.0000000E+00  0.2525252E-01 -0.4508184E-06  0.0000000E+00  0.2178333E-04
  0.5303030E+00  0.0000000E+00  0.2525252E-01 -0.8777300E-06  0.0000000E+00  0.2147062E-04
  0.5404040E+00  0.0000000E+00  0.2525252E-01 -0.1250118E-05  0.0000000E+00  0.2098831E-04
  0.5505050E+00  0.0000000E+00  0.2525252E-01 -0.1563648E-05  0.0000000E+00  0.2036381E-04
  0.5606061E+00  0.0000000E+00  0.2525252E-01 -0.1818647E-05  0.0000000E+00  0.1962440E-04
  0.5707071E+00  0.0000000E+00  0.2525252E-01 -0.2018618E-05  0.0000000E+00  0.1879551E-04
  0.5808081E+00  0.0000000E+00  0.2525252E-01 -0.2168917E-05  0.0000000E+00  0.1789983E-04
  0.5909091E+00  0.0000000E+00  0.2525252E-01 -0.2275717E-05  0.0000000E+00  0.1695694E-04
  0.6010101E+00  0.0000000E+00  0.2525252E-01 -0.2345305E-05  0.0000000E+00  0.1598337E-04
  0.6111111E+00  0.0000000E+00  0.2525252E-01 -0.2383633E-05  0.0000000E+00  0.1499280E-04
  0.6212121E+00  0.0000000E+00  0.2525252E-01 -0.2396085E-05  0.0000000E+00  0.1399644E-04
  0.6313131E+00  0.0000000E+00  0.2525252E-01 -0.2387381E-05  0.0000000E+00  0.1300334E-04
  0.6414142E+00  0.0000000E+00  0.2525252E-01 -0.2361563E-05  0.0000000E+00  0.1202077E-04
  0.6515151E+00  0.0000000E+00  0.2525252E-01 -0.2322043E-05  0.0000000E+00  0.1105449E-04
  0.6616161E+00  0.0000000E+00  0.2525252E-01 -0.2271668E-05  0.0000000E+00  0.1010903E-04
  0.6717172E+00  0.0000000E+00  0.2525252E-01 -0.2212792E-05  0.0000000E+00  0.9187934E-05
  0.6818182E+00  0.0000000E+00  0.2525252E-01 -0.2147357E-05  0.0000000E+00  0.8293911E-05
  0.6919192E+00  0.0000000E+00  0.2525252E-01 -0.2076955E-05  0.0000000E+00  0.7429010E-05
  0.7020202E+00  0.0000000E+00  0.2525252E-01 -0.2002890E-05  0.0000000E+00  0.6594736E-05
  0.7121212E+00  0.0000000E+00  0.2525252E-01 -0.1926229E-05  0.0000000E+00  0.5792153E-05
  0.7222222E+00  0.0000000E+00  0.2525252E-01 -0.1847843E-05  0.0000000E+00  0.5021965E-05
  0.7323232E+00  0.0000000E+00  0.2525252E-01 -0.1768440E-05  0.0000000E+00  0.4284583E-05
  0.7424242E+00  0.0000000E+00  0.2525252E-01 -0.1688596E-05  0.0000000E+00  0.3580181E-05
  0.7525253E+00  0.0000000E+00  0.2525252E-01 -0.1608781E-05  0.0000000E+00  0.2908739E-05
  0.7626263E+00  0.0000000E+00  0.2525252E-01 -0.1529380E-05  0.0000000E+00  0.2270082E-05
  0.7727273E+00  0.0000000E+00  0.2525252E-01 -0.1450700E-05  0.0000000E+00  0.1663909E-05
  0.7828283E+00  0.0000000E+00  0.2525252E-01 -0.1372984E-05  0.0000000E+00  0.1089815E-05
  0.7929293E+00  0.0000000E+00  0.2525252E-01 -0.1296429E-05  0.0000000E+00  0.5473186E-06
  0.8030303E+00  0.0000000E+00  0.2525252E-01 -0.1221190E-05  0.0000000E+00  0.3617415E-07
  0.8131313E+00  0.0000000E+00  0.2525252E-01 -0.1147061E-05  0.0000000E+00 -0.4438269E-06
  0.8232324E+00  0.0000000E+00  0.2525252E-01 -0.1074369E-05  0.0000000E+00 -0.8936103E-06
  0.8333333E+00  0.0000000E+00  0.2525252E-01 -0.1003160E-05  0.0000000E+00 -0.1314185E-05
  0.8434343E+00  0.0000000E+00  0.2525252E-01 -0.9334488E-06  0.0000000E+00 -0.1706169E-05
  0.8535354E+00  0.0000000E+00  0.2525252E-01 -0.8652228E-06  0.0000000E+00 -0.2070181E-05
  0.8636364E+00  0.0000000E+00  0.2525252E-01 -0.7984522E-06  0.0000000E+00 -0.2406828E-05
  0.8737374E+00  0.0000000E+00  0.2525252E-01 -0.7330911E-06  0.0000000E+00 -0.2716702E-05
  0.8838384E+00  0.0000000E+00  0.2525252E-01 -0.6690794E-06  0.0000000E+00 -0.3000370E-05
  0.8939394E+00  0.0000000E+00  0.2525252E-01 -0.6063455E-06  0.0000000E+00 -0.3258372E-05
  0.9040404E+00  0.0000000E+00  0.2525252E-01 -0.5448071E-06  0.0000000E+00 -0.3491215E-05
  0.9141414E+00  0.0000000E+00  0.2525252E-01 -0.4843734E-06  0.0000000E+00 -0.3699372E-05
  0.9242424E+00  0.0000000E+00  0.2525252E-01 -0.4249459E-06  0.0000000E+00 -0.3883275E-05
  0.9343435E+00  0.0000000E+00  0.2525252E-01 -0.3664197E-06  0.0000000E+00 -0.4043313E-05
  0.9444444E+00  0.0000000E+00  0.2525252E-01 -0.3086847E-06  0.0000000E+00 -0.4179833E-05
  0.9545454E+00  0.0000000E+00  0.2525252E-01 -0.2516260E-06  0.0000000E+00 -0.4293135E-05
  0.9646465E+00  0.0000000E+00  0.2525252E-01 -0.1951253E-06  0.0000000E+00 -0.4383471E-05
  0.9747475E+00  0.0000000E+00  0.2525252E-01 -0.1390615E-06  0.0000000E+00 -0.4451045E-05
  0.9848485E+00  0.0000000E+00  0.2525252E-01 -0.8331111E-07  0.0000000E+00 -0.4496008E-05
  0.9974747E+00  0.0000000E+00  0.2525252E-01 -0.2774939E-07  0.0000000E+00 -0.4518464E-05
  0.5050505E-02  0.0000000E+00  0.3535353E-01  0.2540107E-07  0.0000000E+00 -0.6800844E-05
  0.1515152E-01  0.0000000E+00  0.3535353E-01  0.7630923E-07  0.0000000E+00 -0.6786092E-05
  0.2525252E-01  0.0000000E+00  0.3535353E-01  0.1275361E-06  0.0000000E+00 -0.6756527E-05
  0.3535353E-01  0.0000000E+00  0.3535353E-01  0.1792961E-06  0.0000000E+00 -0.6712026E-05
  0.4545455E-01  0.0000000E+00  0.3535353E-01  0.2318068E-06  0.0000000E+00 -0.6652404E-05
  0.5555556E-01  0.0000000E+00  0.3535353E-01  0.2852898E-06  0.0000000E+00 -0.6577412E-05
  0.6565657E-01  0.0000000E+00  0.3535353E-01  0.3399721E-06  0.0000000E+00 -0.6486737E-05
  0.7575758E-01  0.0000000E+00  0.3535353E-01  0.3960875E-06  0.0000000E+00 -0.6379999E-05
  0.8585858E-01  0.0000000E+00  0.3535353E-01  0.4538777E-06  0.0000000E+00 -0.6256749E-05
  0.9595960E-01  0.0000000E+00  0.3535353E-01  0.5135932E-06  0.0000000E+00 -0.6116467E-05
  0.1060606E+00  0.0000000E+00  0.3535353E-01  0.5754953E-06  0.0000000E+00 -0.5958559E-05
  0.1161616E+00  0.0000000E+00  0.3535353E-01  0.6398567E-06  0.0000000E+00 -0.5782354E-05
  0.1262626E+00  0.0000000E+00  0.3535353E-01  0.7069632E-06  0.0000000E+00 -0.5587098E-05
  0.1363636E+00  0.0000000E+00  0.3535353E-01  0.7771145E-06  0.0000000E+00 -0.5371955E-05
  0.1464646E+00  0.0000000E+00  0.3535353E-01  0.8506253E-06  0.0000000E+00 -0.5135996E-05
  0.1565657E+00  0.0000000E+00  0.3535353E-01  0.9278262E-06  0.0000000E+00 -0.4878199E-05
  0.1666667E+00  0.0000000E+00  0.3535353E-01  0.1009064E-05  0.0000000E+00 -0.4597442E-05
  0.1767677E+00  0.0000000E+00  0.3535353E-01  0.1094704E-05  0.0000000E+00 -0.4292496E-05
  0.1868687E+00  0.0000000E+00  0.3535353E-01  0.1185124E-05  0.0000000E+00 -0.3962023E-05
  0.1969697E+00  0.0000000E+00  0.3535353E-01  0.1280719E-05  0.0000000E+00 -0.3604566E-05
  0.2070707E+00  0.0000000E+00  0.3535353E-01  0.1381899E-05  0.0000000E+00 -0.3218547E-05
  0.2171717E+00  0.0000000E+00  0.3535353E-01  0.1489078E-05  0.0000000E+00 -0.2802256E-05
  0.2272727E+00  0.0000000E+00  0.3535353E-01  0.1602678E-05  0.0000000E+00 -0.2353854E-05
  0.2373737E+00  0.0000000E+00  0.3535353E-01  0.1723111E-05  0.0000000E+00 -0.1871362E-05
  0.2474747E+00  0.0000000E+00  0.3535353E-01  0.1850777E-05  0.0000000E+00 -0.1352662E-05
  0.2575758E+00  0.0000000E+00  0.3535353E-01  0.1986038E-05  0.0000000E+00 -0.7954992E-06
  0.2676768E+00  0.0000000E+00  0.3535353E-01  0.2129211E-05  0.0000000E+00 -0.1973200E-06
  0.2777778E+00  0.0000000E+00  0.3535353E-01  0.2280151E-05  0.0000000E+00  0.4451589E-06
  0.2878788E+00  0.0000000E+00  0.3535353E-01  0.2439239E-05  0.0000000E+00  0.1134477E-05
  0.2979798E+00  0.0000000E+00  0.3535353E-01  0.2606380E-05  0.0000000E+00  0.1872659E-05