title = "dataset water"
variables = "x", "y", "z", "vx", "vy", "vz"
zone t = "velocities, solution time =  1.100E+01 days        " i =   99, j =   99, k =    1,  f=point
  0.5050505E-02  0.0000000E+00  0.5050505E-02  0.1926529E-12  0.0000000E+00 -0.4741576E-04
  0.1515152E-01  0.0000000E+00  0.5050505E-02  0.5230828E-12  0.0000000E+00 -0.4741576E-04
  0.2525252E-01  0.0000000E+00  0.5050505E-02  0.8484256E-12  0.0000000E+00 -0.4741575E-04
  0.3535353E-01  0.0000000E+00  0.5050505E-02  0.1180404E-11  0.0000000E+00 -0.4741575E-04
  0.4545455E-01  0.0000000E+00  0.5050505E-02  0.1517775E-11  0.0000000E+00 -0.4741575E-04
  0.5555556E-01  0.0000000E+00  0.5050505E-02  0.1851344E-11  0.0000000E+00 -0.4741575E-04
  0.6565657E-01  0.0000000E+00  0.5050505E-02  0.2185197E-11  0.0000000E+00 -0.4741574E-04
  0.7575758E-01  0.0000000E+00  0.5050505E-02  0.2522234E-11  0.0000000E+00 -0.4741574E-04
  0.8585858E-01  0.0000000E+00  0.5050505E-02  0.2861039E-11  0.0000000E+00 -0.4741573E-04
  0.9595960E-01  0.0000000E+00  0.5050505E-02  0.3198519E-11  0.0000000E+00 -0.4741573E-04
  0.1060606E+00  0.0000000E+00  0.5050505E-02  0.3532170E-11  0.0000000E+00 -0.4741572E-04
  0.1161616E+00  0.0000000E+00  0.5050505E-02  0.3860554E-11  0.0000000E+00 -0.4741571E-04
  0.1262626E+00  0.0000000E+00  0.5050505E-02  0.4182782E-11  0.0000000E+00 -0.4741570E-04
  0.1363636E+00  0.0000000E+00  0.5050505E-02  0.4498137E-11  0.0000000E+00 -0.4741570E-04
  0.1464646E+00  0.0000000E+00  0.5050505E-02  0.4805786E-11  0.0000000E+00 -0.4741569E-04
  0.1565657E+00  0.0000000E+00  0.5050505E-02  0.5104688E-11  0.0000000E+00 -0.4741568E-04
  0.1666667E+00  0.0000000E+00  0.5050505E-02  0.5393615E-11  0.0000000E+00 -0.4741567E-04
  0.1767677E+00  0.0000000E+00  0.5050505E-02  0.5671209E-11  0.0000000E+00 -0.4741565E-04
  0.1868687E+00  0.0000000E+00  0.5050505E-02  0.5935886E-11  0.0000000E+00 -0.4741564E-04
  0.1969697E+00  0.0000000E+00  0.5050505E-02  0.6186199E-11  0.0000000E+00 -0.4741563E-04
  0.2070707E+00  0.0000000E+00  0.5050505E-02  0.6420601E-11  0.0000000E+00 -0.4741562E-04
  0.2171717E+00  0.0000000E+00  0.5050505E-02  0.6637474E-11  0.0000000E+00 -0.4741560E-04
  0.2272727E+00  0.0000000E+00  0.5050505E-02  0.6835206E-11  0.0000000E+00 -0.4741559E-04
  0.2373737E+00  0.0000000E+00  0.5050505E-02  0.7012278E-11  0.0000000E+00 -0.4741558E-04
  0.2474747E+00  0.0000000E+00  0.5050505E-02  0.7167252E-11  0.0000000E+00 -0.4741556E-04
  0.2575758E+00  0.0000000E+00  0.5050505E-02  0.7298748E-11  0.0000000E+00 -0.4741555E-04
  0.2676768E+00  0.0000000E+00  0.5050505E-02  0.7405456E-11  0.0000000E+00 -0.4741553E-04
  0.2777778E+00  0.0000000E+00  0.5050505E-02  0.7486152E-11  0.0000000E+00 -0.4741552E-04
  0.2878788E+00  0.0000000E+00  0.5050505E-02  0.7539691E-11  0.0000000E+00 -0.4741550E-04
  0.2979798E+00  0.0000000E+00  0.5050505E-02  0.7565044E-11  0.0000000E+00 -0.4741549E-04
  0.3080808E+00  0.0000000E+00  0.5050505E-02  0.7561319E-11  0.0000000E+00 -0.4741547E-04
  0.3181818E+00  0.0000000E+00  0.5050505E-02  0.7527766E-11  0.0000000E+00 -0.4741546E-04
  0.3282828E+00  0.0000000E+00  0.5050505E-02  0.7463799E-11  0.0000000E+00 -0.4741544E-04
  0.3383838E+00  0.0000000E+00  0.5050505E-02  0.7369004E-11  0.0000000E+00 -0.4741543E-04
  0.3484848E+00  0.0000000E+00  0.5050505E-02  0.7243131E-11  0.0000000E+00 -0.4741541E-04
  0.3585859E+00  0.0000000E+00  0.5050505E-02  0.7086126E-11  0.0000000E+00 -0.4741540E-04
  0.3686869E+00  0.0000000E+00  0.5050505E-02  0.6898084E-11  0.0000000E+00 -0.4741538E-04
  0.3787879E+00  0.0000000E+00  0.5050505E-02  0.6679288E-11  0.0000000E+00 -0.4741537E-04
  0.3888889E+00  0.0000000E+00  0.5050505E-02  0.6430183E-11  0.0000000E+00 -0.4741536E-04
  0.3989899E+00  0.0000000E+00  0.5050505E-02  0.6151376E-11  0.0000000E+00 -0.4741535E-04
  0.4090909E+00  0.0000000E+00  0.5050505E-02  0.5843643E-11  0.0000000E+00 -0.4741533E-04
  0.4191919E+00  0.0000000E+00  0.5050505E-02  0.5507918E-11  0.0000000E+00 -0.4741532E-04
  0.4292929E+00  0.0000000E+00  0.5050505E-02  0.5145320E-11  0.0000000E+00 -0.4741531E-04
  0.4393939E+00  0.0000000E+00  0.5050505E-02  0.4757162E-11  0.0000000E+00 -0.4741530E-04
  0.4494950E+00  0.0000000E+00  0.5050505E-02  0.4344971E-11  0.0000000E+00 -0.4741529E-04
  0.4595959E+00  0.0000000E+00  0.5050505E-02  0.3910521E-11  0.0000000E+00 -0.4741528E-04
  0.4696970E+00  0.0000000E+00  0.5050505E-02  0.3455865E-11  0.0000000E+00 -0.4741528E-04
  0.4797980E+00  0.0000000E+00  0.5050505E-02  0.2983299E-11  0.0000000E+00 -0.4741527E-04
  0.4898990E+00  0.0000000E+00  0.5050505E-02  0.2495385E-11  0.0000000E+00 -0.4741526E-04
  0.5000000E+00  0.0000000E+00  0.5050505E-02  0.1994817E-11  0.0000000E+00 -0.4741526E-04
  0.5101010E+00  0.0000000E+00  0.5050505E-02  0.1484341E-11  0.0000000E+00 -0.4741526E-04
  0.5202020E+00  0.0000000E+00  0.5050505E-02  0.9666179E-12  0.0000000E+00 -0.4741525E-04
  0.5303030E+00  0.0000000E+00  0.5050505E-02  0.4441564E-12  0.0000000E+00 -0.4741525E-04
  0.5404040E+00  0.0000000E+00  0.5050505E-02 -0.8070190E-13  0.0000000E+00 -0.4741525E-04
  0.5505050E+00  0.0000000E+00  0.5050505E-02 -0.6051572E-12  0.0000000E+00 -0.4741525E-04
  0.5606061E+00  0.0000000E+00  0.5050505E-02 -0.1125816E-11  0.0000000E+00 -0.4741525E-04
  0.5707071E+00  0.0000000E+00  0.5050505E-02 -0.1639948E-11  0.0000000E+00 -0.4741526E-04
  0.5808081E+00  0.0000000E+00  0.5050505E-02 -0.2144063E-11  0.0000000E+00 -0.4741526E-04
  0.5909091E+00  0.0000000E+00  0.5050505E-02 -0.2638678E-11  0.0000000E+00 -0.4741527E-04
  0.6010101E+00  0.0000000E+00  0.5050505E-02 -0.3114312E-11  0.0000000E+00 -0.4741527E-04
  0.6111111E+00  0.0000000E+00  0.5050505E-02 -0.3571746E-11  0.0000000E+00 -0.4741528E-04
  0.6212121E+00  0.0000000E+00  0.5050505E-02 -0.4010973E-11  0.0000000E+00 -0.4741529E-04
  0.6313131E+00  0.0000000E+00  0.5050505E-02 -0.4428711E-11  0.0000000E+00 -0.4741529E-04
  0.6414142E+00  0.0000000E+00  0.5050505E-02 -0.4820802E-11  0.0000000E+00 -0.4741530E-04
  0.6515151E+00  0.0000000E+00  0.5050505E-02 -0.5183818E-11  0.0000000E+00 -0.4741531E-04
  0.6616161E+00  0.0000000E+00  0.5050505E-02 -0.5515761E-11  0.0000000E+00 -0.4741532E-04
  0.6717172E+00  0.0000000E+00  0.5050505E-02 -0.5815395E-11  0.0000000E+00 -0.4741534E-04
  0.6818182E+00  0.0000000E+00  0.5050505E-02 -0.6081845E-11  0.0000000E+00 -0.4741535E-04
  0.6919192E+00  0.0000000E+00  0.5050505E-02 -0.6314423E-11  0.0000000E+00 -0.4741536E-04
  0.7020202E+00  0.0000000E+00  0.5050505E-02 -0.6512656E-11  0.0000000E+00 -0.4741537E-04
  0.7121212E+00  0.0000000E+00  0.5050505E-02 -0.6676209E-11  0.0000000E+00 -0.4741539E-04
  0.7222222E+00  0.0000000E+00  0.5050505E-02 -0.6804876E-11  0.0000000E+00 -0.4741540E-04
  0.7323232E+00  0.0000000E+00  0.5050505E-02 -0.6898611E-11  0.0000000E+00 -0.4741541E-04
  0.7424242E+00  0.0000000E+00  0.5050505E-02 -0.6957547E-11  0.0000000E+00 -0.4741543E-04
  0.7525253E+00  0.0000000E+00  0.5050505E-02 -0.6982018E-11  0.0000000E+00 -0.4741544E-04
  0.7626263E+00  0.0000000E+00  0.5050505E-02 -0.6972532E-11  0.0000000E+00 -0.4741546E-04
  0.7727273E+00  0.0000000E+00  0.5050505E-02 -0.6929799E-11  0.0000000E+00 -0.4741547E-04
  0.7828283E+00  0.0000000E+00  0.5050505E-02 -0.6854700E-11  0.0000000E+00 -0.4741548E-04
  0.7929293E+00  0.0000000E+00  0.5050505E-02 -0.6748271E-11  0.0000000E+00 -0.4741550E-04
  0.8030303E+00  0.0000000E+00  0.5050505E-02 -0.6611709E-11  0.0000000E+00 -0.4741551E-04
  0.8131313E+00  0.0000000E+00  0.5050505E-02 -0.6446301E-11  0.0000000E+00 -0.4741552E-04
  0.8232324E+00  0.0000000E+00  0.5050505E-02 -0.6253430E-11  0.0000000E+00 -0.4741554E-04
  0.8333333E+00  0.0000000E+00  0.5050505E-02 -0.6034537E-11  0.0000000E+00 -0.4741555E-04
  0.8434343E+00  0.0000000E+00  0.5050505E-02 -0.5791082E-11  0.0000000E+00 -0.4741556E-04
  0.8535354E+00  0.0000000E+00  0.5050505E-02 -0.5524542E-11  0.0000000E+00 -0.4741557E-04
  0.8636364E+00  0.0000000E+00  0.5050505E-02 -0.5236371E-11  0.0000000E+00 -0.4741558E-04
  0.8737374E+00  0.0000000E+00  0.5050505E-02 -0.4928019E-11  0.0000000E+00 -0.4741559E-04
  0.8838384E+00  0.0000000E+00  0.5050505E-02 -0.4600902E-11  0.0000000E+00 -0.4741560E-04
  0.8939394E+00  0.0000000E+00  0.5050505E-02 -0.4256470E-11  0.0000000E+00 -0.4741561E-04
  0.9040404E+00  0.0000000E+00  0.5050505E-02 -0.3896183E-11  0.0000000E+00 -0.4741562E-04
  0.9141414E+00  0.0000000E+00  0.5050505E-02 -0.3521584E-11  0.0000000E+00 -0.4741563E-04
  0.9242424E+00  0.0000000E+00  0.5050505E-02 -0.3134283E-11  0.0000000E+00 -0.4741563E-04
  0.9343435E+00  0.0000000E+00  0.5050505E-02 -0.2735976E-11  0.0000000E+00 -0.4741564E-04
  0.9444444E+00  0.0000000E+00  0.5050505E-02 -0.2328286E-11  0.0000000E+00 -0.4741565E-04
  0.9545454E+00  0.0000000E+00  0.5050505E-02 -0.1912938E-11  0.0000000E+00 -0.4741565E-04
  0.9646465E+00  0.0000000E+00  0.5050505E-02 -0.1491203E-11  0.0000000E+00 -0.4741565E-04
  0.9747475E+00  0.0000000E+00  0.5050505E-02 -0.1063780E-11  0.0000000E+00 -0.4741566E-04
  0.9848485E+00  0.0000000E+00  0.5050505E-02 -0.6304461E-12  0.0000000E+00 -0.4741566E-04
  0.9974747E+00  0.0000000E+00  0.5050505E-02 -0.1893769E-12  0.0000000E+00 -0.4741566E-04
  0.5050505E-02  0.0000000E+00  0.1515152E-01  0.5664992E-12  0.0000000E+00 -0.4722096E-04
  0.1515152E-01  0.0000000E+00  0.1515152E-01  0.1571690E-11  0.0000000E+00 -0.4722096E-04
  0.2525252E-01  0.0000000E+00  0.1515152E-01  0.2557385E-11  0.0000000E+00 -0.4722095E-04
  0.3535353E-01  0.0000000E+00  0.1515152E-01  0.3559214E-11  0.0000000E+00 -0.4722095E-04
  0.4545455E-01  0.0000000E+00  0.1515152E-01  0.4576643E-11  0.0000000E+00 -0.4722095E-04
  0.5555556E-01  0.0000000E+00  0.1515152E-01  0.5584943E-11  0.0000000E+00 -0.4722095E-04
  0.6565657E-01  0.0000000E+00  0.1515152E-01  0.6593744E-11  0.0000000E+00 -0.4722094E-04
  0.7575758E-01  0.0000000E+00  0.1515152E-01  0.7610696E-11  0.0000000E+00 -0.4722094E-04
  0.8585858E-01  0.0000000E+00  0.1515152E-01  0.8632140E-11  0.0000000E+00 -0.4722093E-04
  0.9595960E-01  0.0000000E+00  0.1515152E-01  0.9649566E-11  0.0000000E+00 -0.4722093E-04
  0.1060606E+00  0.0000000E+00  0.1515152E-01  0.1065576E-10  0.0000000E+00 -0.4722092E-04
  0.1161616E+00  0.0000000E+00  0.1515152E-01  0.1164632E-10  0.0000000E+00 -0.4722091E-04
  0.1262626E+00  0.0000000E+00  0.1515152E-01  0.1261849E-10  0.0000000E+00 -0.4722090E-04
  0.1363636E+00  0.0000000E+00  0.1515152E-01  0.1356999E-10  0.0000000E+00 -0.4722089E-04
  0.1464646E+00  0.0000000E+00  0.1515152E-01  0.1449826E-10  0.0000000E+00 -0.4722088E-04
  0.1565657E+00  0.0000000E+00  0.1515152E-01  0.1540015E-10  0.0000000E+00 -0.4722087E-04
  0.1666667E+00  0.0000000E+00  0.1515152E-01  0.1627195E-10  0.0000000E+00 -0.4722086E-04
  0.1767677E+00  0.0000000E+00  0.1515152E-01  0.1710964E-10  0.0000000E+00 -0.4722085E-04
  0.1868687E+00  0.0000000E+00  0.1515152E-01  0.1790839E-10  0.0000000E+00 -0.4722084E-04
  0.1969697E+00  0.0000000E+00  0.1515152E-01  0.1866386E-10  0.0000000E+00 -0.4722083E-04
  0.2070707E+00  0.0000000E+00  0.1515152E-01  0.1937139E-10  0.0000000E+00 -0.4722082E-04
  0.2171717E+00  0.0000000E+00  0.1515152E-01  0.2002610E-10  0.0000000E+00 -0.4722080E-04
  0.2272727E+00  0.0000000E+00  0.1515152E-01  0.2062317E-10  0.0000000E+00 -0.4722079E-04
  0.2373737E+00  0.0000000E+00  0.1515152E-01  0.2115799E-10  0.0000000E+00 -0.4722077E-04
  0.2474747E+00  0.0000000E+00  0.1515152E-01  0.2162619E-10  0.0000000E+00 -0.4722076E-04
  0.2575758E+00  0.0000000E+00  0.1515152E-01  0.2202363E-10  0.0000000E+00 -0.4722074E-04
  0.2676768E+00  0.0000000E+00  0.1515152E-01  0.2234632E-10  0.0000000E+00 -0.4722073E-04
  0.2777778E+00  0.0000000E+00  0.1515152E-01  0.2259055E-10  0.0000000E+00 -0.4722071E-04
  0.2878788E+00  0.0000000E+00  0.1515152E-01  0.2275287E-10  0.0000000E+00 -0.4722070E-04
  0.2979798E+00  0.0000000E+00  0.1515152E-01  0.2283014E-10  0.0000000E+00 -0.4722068E-04
  0.3080808E+00  0.0000000E+00  0.1515152E-01  0.2281967E-10  0.0000000E+00 -0.4722067E-04
  0.3181818E+00  0.0000000E+00  0.1515152E-01  0.2271915E-10  0.0000000E+00 -0.4722065E-04
  0.3282828E+00  0.0000000E+00  0.1515152E-01  0.2252683E-10  0.0000000E+00 -0.4722064E-04
  0.3383838E+00  0.0000000E+00  0.1515152E-01  0.2224143E-10  0.0000000E+00 -0.4722062E-04
  0.3484848E+00  0.0000000E+00  0.1515152E-01  0.2186219E-10  0.0000000E+00 -0.4722061E-04
  0.3585859E+00  0.0000000E+00  0.1515152E-01  0.2138891E-10  0.0000000E+00 -0.4722059E-04
  0.3686869E+00  0.0000000E+00  0.1515152E-01  0.2082189E-10  0.0000000E+00 -0.4722058E-04
  0.3787879E+00  0.0000000E+00  0.1515152E-01  0.2016196E-10  0.0000000E+00 -0.4722056E-04
  0.3888889E+00  0.0000000E+00  0.1515152E-01  0.1941043E-10  0.0000000E+00 -0.4722055E-04
  0.3989899E+00  0.0000000E+00  0.1515152E-01  0.1856915E-10  0.0000000E+00 -0.4722054E-04
  0.4090909E+00  0.0000000E+00  0.1515152E-01  0.1764042E-10  0.0000000E+00 -0.4722052E-04
  0.4191919E+00  0.0000000E+00  0.1515152E-01  0.1662706E-10  0.0000000E+00 -0.4722051E-04
  0.4292929E+00  0.0000000E+00  0.1515152E-01  0.1553244E-10  0.0000000E+00 -0.4722050E-04
  0.4393939E+00  0.0000000E+00  0.1515152E-01  0.1436052E-10  0.0000000E+00 -0.4722049E-04
  0.4494950E+00  0.0000000E+00  0.1515152E-01  0.1311590E-10  0.0000000E+00 -0.4722048E-04
  0.4595959E+00  0.0000000E+00  0.1515152E-01  0.1180398E-10  0.0000000E+00 -0.4722047E-04
  0.4696970E+00  0.0000000E+00  0.1515152E-01  0.1043099E-10  0.0000000E+00 -0.4722047E-04
  0.4797980E+00  0.0000000E+00  0.1515152E-01  0.9003943E-11  0.0000000E+00 -0.4722046E-04
  0.4898990E+00  0.0000000E+00  0.1515152E-01  0.7530610E-11  0.0000000E+00 -0.4722045E-04
  0.5000000E+00  0.0000000E+00  0.1515152E-01  0.6019196E-11  0.0000000E+00 -0.4722045E-04
  0.5101010E+00  0.0000000E+00  0.1515152E-01  0.4477946E-11  0.0000000E+00 -0.4722045E-04
  0.5202020E+00  0.0000000E+00  0.1515152E-01  0.2914683E-11  0.0000000E+00 -0.4722044E-04
  0.5303030E+00  0.0000000E+00  0.1515152E-01  0.1336688E-11  0.0000000E+00 -0.4722044E-04
  0.5404040E+00  0.0000000E+00  0.1515152E-01 -0.2477741E-12  0.0000000E+00 -0.4722044E-04
  0.5505050E+00  0.0000000E+00  0.1515152E-01 -0.1831625E-11  0.0000000E+00 -0.4722044E-04
  0.5606061E+00  0.0000000E+00  0.1515152E-01 -0.3404344E-11  0.0000000E+00 -0.4722044E-04
  0.5707071E+00  0.0000000E+00  0.1515152E-01 -0.4956537E-11  0.0000000E+00 -0.4722045E-04
  0.5808081E+00  0.0000000E+00  0.1515152E-01 -0.6477485E-11  0.0000000E+00 -0.4722045E-04
  0.5909091E+00  0.0000000E+00  0.1515152E-01 -0.7970088E-11  0.0000000E+00 -0.4722046E-04
  0.6010101E+00  0.0000000E+00  0.1515152E-01 -0.9407342E-11  0.0000000E+00 -0.4722046E-04
  0.6111111E+00  0.0000000E+00  0.1515152E-01 -0.1078916E-10  0.0000000E+00 -0.4722047E-04
  0.6212121E+00  0.0000000E+00  0.1515152E-01 -0.1211472E-10  0.0000000E+00 -0.4722048E-04
  0.6313131E+00  0.0000000E+00  0.1515152E-01 -0.1337470E-10  0.0000000E+00 -0.4722049E-04
  0.6414142E+00  0.0000000E+00  0.1515152E-01 -0.1455731E-10  0.0000000E+00 -0.4722049E-04
  0.6515151E+00  0.0000000E+00  0.1515152E-01 -0.1565247E-10  0.0000000E+00 -0.4722050E-04
  0.6616161E+00  0.0000000E+00  0.1515152E-01 -0.1665397E-10  0.0000000E+00 -0.4722052E-04
  0.6717172E+00  0.0000000E+00  0.1515152E-01 -0.1755800E-10  0.0000000E+00 -0.4722053E-04
  0.6818182E+00  0.0000000E+00  0.1515152E-01 -0.1836187E-10  0.0000000E+00 -0.4722054E-04
  0.6919192E+00  0.0000000E+00  0.1515152E-01 -0.1906349E-10  0.0000000E+00 -0.4722055E-04
  0.7020202E+00  0.0000000E+00  0.1515152E-01 -0.1966138E-10  0.0000000E+00 -0.4722057E-04
  0.7121212E+00  0.0000000E+00  0.1515152E-01 -0.2015450E-10  0.0000000E+00 -0.4722058E-04
  0.7222222E+00  0.0000000E+00  0.1515152E-01 -0.2054228E-10  0.0000000E+00 -0.4722059E-04
  0.7323232E+00  0.0000000E+00  0.1515152E-01 -0.2082461E-10  0.0000000E+00 -0.4722061E-04
  0.7424242E+00  0.0000000E+00  0.1515152E-01 -0.2100190E-10  0.0000000E+00 -0.4722062E-04
  0.7525253E+00  0.0000000E+00  0.1515152E-01 -0.2107515E-10  0.0000000E+00 -0.4722064E-04
  0.7626263E+00  0.0000000E+00  0.1515152E-01 -0.2104592E-10  0.0000000E+00 -0.4722065E-04
  0.7727273E+00  0.0000000E+00  0.1515152E-01 -0.2091636E-10  0.0000000E+00 -0.4722066E-04
  0.7828283E+00  0.0000000E+00  0.1515152E-01 -0.2068915E-10  0.0000000E+00 -0.4722068E-04
  0.7929293E+00  0.0000000E+00  0.1515152E-01 -0.2036742E-10  0.0000000E+00 -0.4722069E-04
  0.8030303E+00  0.0000000E+00  0.1515152E-01 -0.1995477E-10  0.0000000E+00 -0.4722071E-04
  0.8131313E+00  0.0000000E+00  0.1515152E-01 -0.1945513E-10  0.0000000E+00 -0.4722072E-04
  0.8232324E+00  0.0000000E+00  0.1515152E-01 -0.1887265E-10  0.0000000E+00 -0.4722073E-04
  0.8333333E+00  0.0000000E+00  0.1515152E-01 -0.1821170E-10  0.0000000E+00 -0.4722075E-04
  0.8434343E+00  0.0000000E+00  0.1515152E-01 -0.1747668E-10  0.0000000E+00 -0.4722076E-04
  0.8535354E+00  0.0000000E+00  0.1515152E-01 -0.1667204E-10  0.0000000E+00 -0.4722077E-04
  0.8636364E+00  0.0000000E+00  0.1515152E-01 -0.1580216E-10  0.0000000E+00 -0.4722078E-04
  0.8737374E+00  0.0000000E+00  0.1515152E-01 -0.1487141E-10  0.0000000E+00 -0.4722079E-04
  0.8838384E+00  0.0000000E+00  0.1515152E-01 -0.1388407E-10  0.0000000E+00 -0.4722080E-04
  0.8939394E+00  0.0000000E+00  0.1515152E-01 -0.1284447E-10  0.0000000E+00 -0.4722081E-04
  0.9040404E+00  0.0000000E+00  0.1515152E-01 -0.1175703E-10  0.0000000E+00 -0.4722082E-04
  0.9141414E+00  0.0000000E+00  0.1515152E-01 -0.1062644E-10  0.0000000E+00 -0.4722083E-04
  0.9242424E+00  0.0000000E+00  0.1515152E-01 -0.9457616E-11  0.0000000E+00 -0.4722083E-04
  0.9343435E+00  0.0000000E+00  0.1515152E-01 -0.8255787E-11  0.0000000E+00 -0.4722084E-04
  0.9444444E+00  0.0000000E+00  0.1515152E-01 -0.7025865E-11  0.0000000E+00 -0.4722084E-04
  0.9545454E+00  0.0000000E+00  0.1515152E-01 -0.5772983E-11  0.0000000E+00 -0.4722085E-04
  0.9646465E+00  0.0000000E+00  0.1515152E-01 -0.4501143E-11  0.0000000E+00 -0.4722085E-04
  0.9747475E+00  0.0000000E+00  0.1515152E-01 -0.3212881E-11  0.0000000E+00 -0.4722085E-04
  0.9848485E+00  0.0000000E+00  0.1515152E-01 -0.1909637E-11  0.0000000E+00 -0.4722086E-04
  0.9974747E+00  0.0000000E+00  0.1515152E-01 -0.5896384E-12  0.0000000E+00 -0.4722086E-04
  0.5050505E-02  0.0000000E+00  0.2525252E-01  0.9280274E-12  0.0000000E+00 -0.4683412E-04
  0.1515152E-01  0.0000000E+00  0.2525252E-01  0.2634151E-11  0.0000000E+00 -0.4683412E-04
  0.2525252E-01  0.0000000E+00  0.2525252E-01  0.4305816E-11  0.0000000E+00 -0.4683411E-04
  0.3535353E-01  0.0000000E+00  0.2525252E-01  0.5998060E-11  0.0000000E+00 -0.4683411E-04
  0.4545455E-01  0.0000000E+00  0.2525252E-01  0.7714193E-11  0.0000000E+00 -0.4683411E-04
  0.5555556E-01  0.0000000E+00  0.2525252E-01  0.9418016E-11  0.0000000E+00 -0.4683411E-04
  0.6565657E-01  0.0000000E+00  0.2525252E-01  0.1112175E-10  0.0000000E+00 -0.4683410E-04
  0.7575758E-01  0.0000000E+00  0.2525252E-01  0.1283667E-10  0.0000000E+00 -0.4683410E-04
  0.8585858E-01  0.0000000E+00  0.2525252E-01  0.1455772E-10  0.0000000E+00 -0.4683409E-04
  0.9595960E-01  0.0000000E+00  0.2525252E-01  0.1627206E-10  0.0000000E+00 -0.4683408E-04
  0.1060606E+00  0.0000000E+00  0.2525252E-01  0.1796810E-10  0.0000000E+00 -0.4683408E-04
  0.1161616E+00  0.0000000E+00  0.2525252E-01  0.1963832E-10  0.0000000E+00 -0.4683407E-04
  0.1262626E+00  0.0000000E+00  0.2525252E-01  0.2127785E-10  0.0000000E+00 -0.4683406E-04
  0.1363636E+00  0.0000000E+00  0.2525252E-01  0.2288268E-10  0.0000000E+00 -0.4683405E-04
  0.1464646E+00  0.0000000E+00  0.2525252E-01  0.2444842E-10  0.0000000E+00 -0.4683404E-04
  0.1565657E+00  0.0000000E+00  0.2525252E-01  0.2596973E-10  0.0000000E+00 -0.4683403E-04
  0.1666667E+00  0.0000000E+00  0.2525252E-01  0.2744033E-10  0.0000000E+00 -0.4683402E-04
  0.1767677E+00  0.0000000E+00  0.2525252E-01  0.2885368E-10  0.0000000E+00 -0.4683401E-04
  0.1868687E+00  0.0000000E+00  0.2525252E-01  0.3020151E-10  0.0000000E+00 -0.4683399E-04
  0.1969697E+00  0.0000000E+00  0.2525252E-01  0.3147653E-10  0.0000000E+00 -0.4683398E-04
  0.2070707E+00  0.0000000E+00  0.2525252E-01  0.3267092E-10  0.0000000E+00 -0.4683397E-04
  0.2171717E+00  0.0000000E+00  0.2525252E-01  0.3377650E-10  0.0000000E+00 -0.4683395E-04
  0.2272727E+00  0.0000000E+00  0.2525252E-01  0.3478517E-10  0.0000000E+00 -0.4683394E-04
  0.2373737E+00  0.0000000E+00  0.2525252E-01  0.3568911E-10  0.0000000E+00 -0.4683393E-04
  0.2474747E+00  0.0000000E+00  0.2525252E-01  0.3648094E-10  0.0000000E+00 -0.4683391E-04
  0.2575758E+00  0.0000000E+00  0.2525252E-01  0.3715360E-10  0.0000000E+00 -0.4683389E-04
  0.2676768E+00  0.0000000E+00  0.2525252E-01  0.3770035E-10  0.0000000E+00 -0.4683388E-04
  0.2777778E+00  0.0000000E+00  0.2525252E-01  0.3811485E-10  0.0000000E+00 -0.4683386E-04
  0.2878788E+00  0.0000000E+00  0.2525252E-01  0.3839123E-10  0.0000000E+00 -0.4683385E-04
  0.2979798E+00  0.0000000E+00  0.2525252E-01  0.3852418E-10  0.0000000E+00 -0.4683383E-04
  0.3080808E+00  0.0000000E+00  0.2525252E-01  0.3850905E-10  0.0000000E+00 -0.4683381E-04
  0.3181818E+00  0.0000000E+00  0.2525252E-01  0.3834196E-10  0.0000000E+00 -0.4683380E-04
  0.3282828E+00  0.0000000E+00  0.2525252E-01  0.3801985E-10  0.0000000E+00 -0.4683378E-04
  0.3383838E+00  0.0000000E+00  0.2525252E-01  0.3754052E-10  0.0000000E+00 -0.4683377E-04
  0.3484848E+00  0.0000000E+00  0.2525252E-01  0.3690264E-10  0.0000000E+00 -0.4683375E-04
  0.3585859E+00  0.0000000E+00  0.2525252E-01  0.3610581E-10  0.0000000E+00 -0.4683374E-04
  0.3686869E+00  0.0000000E+00  0.2525252E-01  0.3515051E-10  0.0000000E+00 -0.4683372E-04
  0.3787879E+00  0.0000000E+00  0.2525252E-01  0.3403807E-10  0.0000000E+00 -0.4683371E-04
  0.3888889E+00  0.0000000E+00  0.2525252E-01  0.3277069E-10  0.0000000E+00 -0.4683369E-04
  0.3989899E+00  0.0000000E+00  0.2525252E-01  0.3135141E-10  0.0000000E+00 -0.4683368E-04
  0.4090909E+00  0.0000000E+00  0.2525252E-01  0.2978410E-10  0.0000000E+00 -0.4683367E-04
  0.4191919E+00  0.0000000E+00  0.2525252E-01  0.2807348E-10  0.0000000E+00 -0.4683365E-04
  0.4292929E+00  0.0000000E+00  0.2525252E-01  0.2622520E-10  0.0000000E+00 -0.4683364E-04
  0.4393939E+00  0.0000000E+00  0.2525252E-01  0.2424594E-10  0.0000000E+00 -0.4683363E-04
  0.4494950E+00  0.0000000E+00  0.2525252E-01  0.2214353E-10  0.0000000E+00 -0.4683362E-04
  0.4595959E+00  0.0000000E+00  0.2525252E-01  0.1992717E-10  0.0000000E+00 -0.4683361E-04
  0.4696970E+00  0.0000000E+00  0.2525252E-01  0.1760748E-10  0.0000000E+00 -0.4683361E-04
  0.4797980E+00  0.0000000E+00  0.2525252E-01  0.1519652E-10  0.0000000E+00 -0.4683360E-04
  0.4898990E+00  0.0000000E+00  0.2525252E-01  0.1270754E-10  0.0000000E+00 -0.4683359E-04
  0.5000000E+00  0.0000000E+00  0.2525252E-01  0.1015447E-10  0.0000000E+00 -0.4683359E-04
  0.5101010E+00  0.0000000E+00  0.2525252E-01  0.7551154E-11  0.0000000E+00 -0.4683358E-04
  0.5202020E+00  0.0000000E+00  0.2525252E-01  0.4910349E-11  0.0000000E+00 -0.4683358E-04
  0.5303030E+00  0.0000000E+00  0.2525252E-01  0.2243400E-11  0.0000000E+00 -0.4683358E-04
  0.5404040E+00  0.0000000E+00  0.2525252E-01 -0.4335057E-12  0.0000000E+00 -0.4683358E-04
  0.5505050E+00  0.0000000E+00  0.2525252E-01 -0.3108350E-11  0.0000000E+00 -0.4683358E-04
  0.5606061E+00  0.0000000E+00  0.2525252E-01 -0.5765139E-11  0.0000000E+00 -0.4683358E-04
  0.5707071E+00  0.0000000E+00  0.2525252E-01 -0.8387240E-11  0.0000000E+00 -0.4683359E-04
  0.5808081E+00  0.0000000E+00  0.2525252E-01 -0.1095534E-10  0.0000000E+00 -0.4683359E-04
  0.5909091E+00  0.0000000E+00  0.2525252E-01 -0.1347504E-10  0.0000000E+00 -0.4683359E-04
  0.6010101E+00  0.0000000E+00  0.2525252E-01 -0.1590393E-10  0.0000000E+00 -0.4683360E-04
  0.6111111E+00  0.0000000E+00  0.2525252E-01 -0.1823815E-10  0.0000000E+00 -0.4683361E-04
  0.6212121E+00  0.0000000E+00  0.2525252E-01 -0.2047497E-10  0.0000000E+00 -0.4683362E-04
  0.6313131E+00  0.0000000E+00  0.2525252E-01 -0.2259970E-10  0.0000000E+00 -0.4683363E-04
  0.6414142E+00  0.0000000E+00  0.2525252E-01 -0.2459387E-10  0.0000000E+00 -0.4683364E-04
  0.6515151E+00  0.0000000E+00  0.2525252E-01 -0.2644103E-10  0.0000000E+00 -0.4683365E-04
  0.6616161E+00  0.0000000E+00  0.2525252E-01 -0.2813042E-10  0.0000000E+00 -0.4683366E-04
  0.6717172E+00  0.0000000E+00  0.2525252E-01 -0.2965521E-10  0.0000000E+00 -0.4683367E-04
  0.6818182E+00  0.0000000E+00  0.2525252E-01 -0.3101079E-10  0.0000000E+00 -0.4683368E-04
  0.6919192E+00  0.0000000E+00  0.2525252E-01 -0.3219370E-10  0.0000000E+00 -0.4683370E-04
  0.7020202E+00  0.0000000E+00  0.2525252E-01 -0.3320134E-10  0.0000000E+00 -0.4683371E-04
  0.7121212E+00  0.0000000E+00  0.2525252E-01 -0.3403193E-10  0.0000000E+00 -0.4683372E-04
  0.7222222E+00  0.0000000E+00  0.2525252E-01 -0.3468454E-10  0.0000000E+00 -0.4683374E-04
  0.7323232E+00  0.0000000E+00  0.2525252E-01 -0.3515908E-10  0.0000000E+00 -0.4683375E-04
  0.7424242E+00  0.0000000E+00  0.2525252E-01 -0.3545628E-10  0.0000000E+00 -0.4683377E-04
  0.7525253E+00  0.0000000E+00  0.2525252E-01 -0.3557787E-10  0.0000000E+00 -0.4683378E-04
  0.7626263E+00  0.0000000E+00  0.2525252E-01 -0.3552653E-10  0.0000000E+00 -0.4683380E-04
  0.7727273E+00  0.0000000E+00  0.2525252E-01 -0.3530590E-10  0.0000000E+00 -0.4683381E-04
  0.7828283E+00  0.0000000E+00  0.2525252E-01 -0.3492052E-10  0.0000000E+00 -0.4683383E-04
  0.7929293E+00  0.0000000E+00  0.2525252E-01 -0.3437577E-10  0.0000000E+00 -0.4683384E-04
  0.8030303E+00  0.0000000E+00  0.2525252E-01 -0.3367770E-10  0.0000000E+00 -0.4683386E-04
  0.8131313E+00  0.0000000E+00  0.2525252E-01 -0.3283297E-10  0.0000000E+00 -0.4683387E-04
  0.8232324E+00  0.0000000E+00  0.2525252E-01 -0.3184864E-10  0.0000000E+00 -0.4683388E-04
  0.8333333E+00  0.0000000E+00  0.2525252E-01 -0.3073204E-10  0.0000000E+00 -0.4683390E-04
  0.8434343E+00  0.0000000E+00  0.2525252E-01 -0.2949063E-10  0.0000000E+00 -0.4683391E-04
  0.8535354E+00  0.0000000E+00  0.2525252E-01 -0.2813191E-10  0.0000000E+00 -0.4683392E-04
  0.8636364E+00  0.0000000E+00  0.2525252E-01 -0.2666327E-10  0.0000000E+00 -0.4683393E-04
  0.8737374E+00  0.0000000E+00  0.2525252E-01 -0.2509201E-10  0.0000000E+00 -0.4683394E-04
  0.8838384E+00  0.0000000E+00  0.2525252E-01 -0.2342541E-10  0.0000000E+00 -0.4683395E-04
  0.8939394E+00  0.0000000E+00  0.2525252E-01 -0.2167072E-10  0.0000000E+00 -0.4683396E-04
  0.9040404E+00  0.0000000E+00  0.2525252E-01 -0.1983539E-10  0.0000000E+00 -0.4683397E-04
  0.9141414E+00  0.0000000E+00  0.2525252E-01 -0.1792739E-10  0.0000000E+00 -0.4683398E-04
  0.9242424E+00  0.0000000E+00  0.2525252E-01 -0.1595514E-10  0.0000000E+00 -0.4683399E-04
  0.9343435E+00  0.0000000E+00  0.2525252E-01 -0.1392784E-10  0.0000000E+00 -0.4683399E-04
  0.9444444E+00  0.0000000E+00  0.2525252E-01 -0.1185383E-10  0.0000000E+00 -0.4683400E-04
  0.9545454E+00  0.0000000E+00  0.2525252E-01 -0.9741494E-11  0.0000000E+00 -0.4683400E-04
  0.9646465E+00  0.0000000E+00  0.2525252E-01 -0.7597809E-11  0.0000000E+00 -0.4683401E-04
  0.9747475E+00  0.0000000E+00  0.2525252E-01 -0.5427854E-11  0.0000000E+00 -0.4683401E-04
  0.9848485E+00  0.0000000E+00  0.2525252E-01 -0.3236853E-11  0.0000000E+00 -0.4683401E-04
  0.9974747E+00  0.0000000E+00  0.2525252E-01 -0.1028027E-11  0.0000000E+00 -0.4683401E-04
  0.5050505E-02  0.0000000E+00  0.3535353E-01  0.1295682E-11  0.0000000E+00 -0.4625941E-04
  0.1515152E-01  0.0000000E+00  0.3535353E-01  0.3733029E-11  0.0000000E+00 -0.4625941E-04
  0.2525252E-01  0.0000000E+00  0.3535353E-01  0.6127293E-11  0.0000000E+00 -0.4625941E-04
  0.3535353E-01  0.0000000E+00  0.3535353E-01  0.8545661E-11  0.0000000E+00 -0.4625941E-04
  0.4545455E-01  0.0000000E+00  0.3535353E-01  0.1099410E-10  0.0000000E+00 -0.4625940E-04
  0.5555556E-01  0.0000000E+00  0.3535353E-01  0.1342620E-10  0.0000000E+00 -0.4625940E-04
  0.6565657E-01  0.0000000E+00  0.3535353E-01  0.1585671E-10  0.0000000E+00 -0.4625940E-04
  0.7575758E-01  0.0000000E+00  0.3535353E-01  0.1830079E-10  0.0000000E+00 -0.4625939E-04
  0.8585858E-01  0.0000000E+00  0.3535353E-01  0.2075237E-10  0.0000000E+00 -0.4625938E-04
  0.9595960E-01  0.0000000E+00  0.3535353E-01  0.2319461E-10  0.0000000E+00 -0.4625938E-04
  0.1060606E+00  0.0000000E+00  0.3535353E-01  0.2561157E-10  0.0000000E+00 -0.4625937E-04
  0.1161616E+00  0.0000000E+00  0.3535353E-01  0.2799238E-10  0.0000000E+00 -0.4625936E-04
  0.1262626E+00  0.0000000E+00  0.3535353E-01  0.3032979E-10  0.0000000E+00 -0.4625935E-04
  0.1363636E+00  0.0000000E+00  0.3535353E-01  0.3261793E-10  0.0000000E+00 -0.4625934E-04
  0.1464646E+00  0.0000000E+00  0.3535353E-01  0.3485055E-10  0.0000000E+00 -0.4625933E-04
  0.1565657E+00  0.0000000E+00  0.3535353E-01  0.3702010E-10  0.0000000E+00 -0.4625932E-04
  0.1666667E+00  0.0000000E+00  0.3535353E-01  0.3911742E-10  0.0000000E+00 -0.4625931E-04
  0.1767677E+00  0.0000000E+00  0.3535353E-01  0.4113359E-10  0.0000000E+00 -0.4625930E-04
  0.1868687E+00  0.0000000E+00  0.3535353E-01  0.4305684E-10  0.0000000E+00 -0.4625928E-04
  0.1969697E+00  0.0000000E+00  0.3535353E-01  0.4487675E-10  0.0000000E+00 -0.4625927E-04
  0.2070707E+00  0.0000000E+00  0.3535353E-01  0.4658218E-10  0.0000000E+00 -0.4625926E-04
  0.2171717E+00  0.0000000E+00  0.3535353E-01  0.4816152E-10  0.0000000E+00 -0.4625924E-04
  0.2272727E+00  0.0000000E+00  0.3535353E-01  0.4960327E-10  0.0000000E+00 -0.4625923E-04
  0.2373737E+00  0.0000000E+00  0.3535353E-01  0.5089629E-10  0.0000000E+00 -0.4625921E-04
  0.2474747E+00  0.0000000E+00  0.3535353E-01  0.5202994E-10  0.0000000E+00 -0.4625919E-04
  0.2575758E+00  0.0000000E+00  0.3535353E-01  0.5299405E-10  0.0000000E+00 -0.4625918E-04
  0.2676768E+00  0.0000000E+00  0.3535353E-01  0.5377894E-10  0.0000000E+00 -0.4625916E-04
  0.2777778E+00  0.0000000E+00  0.3535353E-01  0.5437545E-10  0.0000000E+00 -0.4625914E-04
  0.2878788E+00  0.0000000E+00  0.3535353E-01  0.5477511E-10  0.0000000E+00 -0.4625913E-04
  0.2979798E+00  0.0000000E+00  0.3535353E-01  0.5497022E-10  0.0000000E+00 -0.4625911E-04