title = "dataset water"
variables = "x", "y", "z", "vx", "vy", "vz"
zone t = "velocities, solution time =  3.700E+01 days        " i =   99, j =   99, k =    1,  f=point
  0.5050505E-02  0.0000000E+00  0.5050505E-02  0.2511982E-07  0.0000000E+00  0.1731025E-04
  0.1515152E-01  0.0000000E+00  0.5050505E-02  0.7549350E-07  0.0000000E+00  0.1741137E-04
  0.2525252E-01  0.0000000E+00  0.5050505E-02  0.1262715E-06  0.0000000E+00  0.1761416E-04
  0.3535353E-01  0.0000000E+00  0.5050505E-02  0.1777293E-06  0.0000000E+00  0.1791970E-04
  0.4545455E-01  0.0000000E+00  0.5050505E-02  0.2301514E-06  0.0000000E+00  0.1832967E-04
  0.5555556E-01  0.0000000E+00  0.5050505E-02  0.2838340E-06  0.0000000E+00  0.1884632E-04
  0.6565657E-01  0.0000000E+00  0.5050505E-02  0.3390897E-06  0.0000000E+00  0.1947251E-04
  0.7575758E-01  0.0000000E+00  0.5050505E-02  0.3962516E-06  0.0000000E+00  0.2021176E-04
  0.8585858E-01  0.0000000E+00  0.5050505E-02  0.4556778E-06  0.0000000E+00  0.2106830E-04
  0.9595960E-01  0.0000000E+00  0.5050505E-02  0.5177576E-06  0.0000000E+00  0.2204710E-04
  0.1060606E+00  0.0000000E+00  0.5050505E-02  0.5829176E-06  0.0000000E+00  0.2315398E-04
  0.1161616E+00  0.0000000E+00  0.5050505E-02  0.6516295E-06  0.0000000E+00  0.2439565E-04
  0.1262626E+00  0.0000000E+00  0.5050505E-02  0.7244195E-06  0.0000000E+00  0.2577985E-04
  0.1363636E+00  0.0000000E+00  0.5050505E-02  0.8018792E-06  0.0000000E+00  0.2731545E-04
  0.1464646E+00  0.0000000E+00  0.5050505E-02  0.8846794E-06  0.0000000E+00  0.2901261E-04
  0.1565657E+00  0.0000000E+00  0.5050505E-02  0.9735875E-06  0.0000000E+00  0.3088295E-04
  0.1666667E+00  0.0000000E+00  0.5050505E-02  0.1069488E-05  0.0000000E+00  0.3293976E-04
  0.1767677E+00  0.0000000E+00  0.5050505E-02  0.1173413E-05  0.0000000E+00  0.3519831E-04
  0.1868687E+00  0.0000000E+00  0.5050505E-02  0.1286573E-05  0.0000000E+00  0.3767615E-04
  0.1969697E+00  0.0000000E+00  0.5050505E-02  0.1410410E-05  0.0000000E+00  0.4039353E-04
  0.2070707E+00  0.0000000E+00  0.5050505E-02  0.1546658E-05  0.0000000E+00  0.4337396E-04
  0.2171717E+00  0.0000000E+00  0.5050505E-02  0.1697434E-05  0.0000000E+00  0.4664487E-04
  0.2272727E+00  0.0000000E+00  0.5050505E-02  0.1865354E-05  0.0000000E+00  0.5023855E-04
  0.2373737E+00  0.0000000E+00  0.5050505E-02  0.2053717E-05  0.0000000E+00  0.5419334E-04
  0.2474747E+00  0.0000000E+00  0.5050505E-02  0.2266752E-05  0.0000000E+00  0.5855531E-04
  0.2575758E+00  0.0000000E+00  0.5050505E-02  0.2510008E-05  0.0000000E+00  0.6338053E-04
  0.2676768E+00  0.0000000E+00  0.5050505E-02  0.2790945E-05  0.0000000E+00  0.6873843E-04
  0.2777778E+00  0.0000000E+00  0.5050505E-02  0.3119880E-05  0.0000000E+00  0.7471668E-04
  0.2878788E+00  0.0000000E+00  0.5050505E-02  0.3511571E-05  0.0000000E+00  0.8142870E-04
  0.2979798E+00  0.0000000E+00  0.5050505E-02  0.3987965E-05  0.0000000E+00  0.8902561E-04
  0.3080808E+00  0.0000000E+00  0.5050505E-02  0.4583288E-05  0.0000000E+00  0.9771627E-04
  0.3181818E+00  0.0000000E+00  0.5050505E-02  0.5354126E-05  0.0000000E+00  0.1078029E-03
  0.3282828E+00  0.0000000E+00  0.5050505E-02  0.6401245E-05  0.0000000E+00  0.1197497E-03
  0.3383838E+00  0.0000000E+00  0.5050505E-02  0.7921948E-05  0.0000000E+00  0.1343276E-03
  0.3484848E+00  0.0000000E+00  0.5050505E-02  0.1035155E-04  0.0000000E+00  0.1529601E-03
  0.3585859E+00  0.0000000E+00  0.5050505E-02  0.1479593E-04  0.0000000E+00  0.1786623E-03
  0.3686869E+00  0.0000000E+00  0.5050505E-02  0.2451907E-04  0.0000000E+00  0.2189797E-03
  0.3787879E+00  0.0000000E+00  0.5050505E-02  0.5060606E-04  0.0000000E+00  0.2964454E-03
  0.3888889E+00  0.0000000E+00  0.5050505E-02 -0.1535674E-04  0.0000000E+00  0.3327254E-03
  0.3989899E+00  0.0000000E+00  0.5050505E-02 -0.9036868E-05  0.0000000E+00  0.3073206E-03
  0.4090909E+00  0.0000000E+00  0.5050505E-02 -0.5658594E-05  0.0000000E+00  0.2920462E-03
  0.4191919E+00  0.0000000E+00  0.5050505E-02 -0.3421266E-05  0.0000000E+00  0.2826200E-03
  0.4292929E+00  0.0000000E+00  0.5050505E-02 -0.2153777E-05  0.0000000E+00  0.2768366E-03
  0.4393939E+00  0.0000000E+00  0.5050505E-02 -0.1630752E-05  0.0000000E+00  0.2729126E-03
  0.4494950E+00  0.0000000E+00  0.5050505E-02 -0.1585615E-05  0.0000000E+00  0.2695792E-03
  0.4595959E+00  0.0000000E+00  0.5050505E-02 -0.1818642E-05  0.0000000E+00  0.2660526E-03
  0.4696970E+00  0.0000000E+00  0.5050505E-02 -0.2193572E-05  0.0000000E+00  0.2618983E-03
  0.4797980E+00  0.0000000E+00  0.5050505E-02 -0.2616207E-05  0.0000000E+00  0.2569212E-03
  0.4898990E+00  0.0000000E+00  0.5050505E-02 -0.3025311E-05  0.0000000E+00  0.2510876E-03
  0.5000000E+00  0.0000000E+00  0.5050505E-02 -0.3386026E-05  0.0000000E+00  0.2444633E-03
  0.5101010E+00  0.0000000E+00  0.5050505E-02 -0.3682246E-05  0.0000000E+00  0.2371666E-03
  0.5202020E+00  0.0000000E+00  0.5050505E-02 -0.3909562E-05  0.0000000E+00  0.2293368E-03
  0.5303030E+00  0.0000000E+00  0.5050505E-02 -0.4070200E-05  0.0000000E+00  0.2211152E-03
  0.5404040E+00  0.0000000E+00  0.5050505E-02 -0.4169886E-05  0.0000000E+00  0.2126340E-03
  0.5505050E+00  0.0000000E+00  0.5050505E-02 -0.4216039E-05  0.0000000E+00  0.2040117E-03
  0.5606061E+00  0.0000000E+00  0.5050505E-02 -0.4216675E-05  0.0000000E+00  0.1953504E-03
  0.5707071E+00  0.0000000E+00  0.5050505E-02 -0.4179729E-05  0.0000000E+00  0.1867354E-03
  0.5808081E+00  0.0000000E+00  0.5050505E-02 -0.4112612E-05  0.0000000E+00  0.1782359E-03
  0.5909091E+00  0.0000000E+00  0.5050505E-02 -0.4021957E-05  0.0000000E+00  0.1699066E-03
  0.6010101E+00  0.0000000E+00  0.5050505E-02 -0.3913500E-05  0.0000000E+00  0.1617891E-03
  0.6111111E+00  0.0000000E+00  0.5050505E-02 -0.3792062E-05  0.0000000E+00  0.1539144E-03
  0.6212121E+00  0.0000000E+00  0.5050505E-02 -0.3661599E-05  0.0000000E+00  0.1463042E-03
  0.6313131E+00  0.0000000E+00  0.5050505E-02 -0.3525291E-05  0.0000000E+00  0.1389728E-03
  0.6414142E+00  0.0000000E+00  0.5050505E-02 -0.3385649E-05  0.0000000E+00  0.1319291E-03
  0.6515151E+00  0.0000000E+00  0.5050505E-02 -0.3244625E-05  0.0000000E+00  0.1251769E-03
  0.6616161E+00  0.0000000E+00  0.5050505E-02 -0.3103709E-05  0.0000000E+00  0.1187169E-03
  0.6717172E+00  0.0000000E+00  0.5050505E-02 -0.2964023E-05  0.0000000E+00  0.1125472E-03
  0.6818182E+00  0.0000000E+00  0.5050505E-02 -0.2826399E-05  0.0000000E+00  0.1066636E-03
  0.6919192E+00  0.0000000E+00  0.5050505E-02 -0.2691437E-05  0.0000000E+00  0.1010608E-03
  0.7020202E+00  0.0000000E+00  0.5050505E-02 -0.2559563E-05  0.0000000E+00  0.9573243E-04
  0.7121212E+00  0.0000000E+00  0.5050505E-02 -0.2431066E-05  0.0000000E+00  0.9067140E-04
  0.7222222E+00  0.0000000E+00  0.5050505E-02 -0.2306132E-05  0.0000000E+00  0.8587018E-04
  0.7323232E+00  0.0000000E+00  0.5050505E-02 -0.2184868E-05  0.0000000E+00  0.8132102E-04
  0.7424242E+00  0.0000000E+00  0.5050505E-02 -0.2067317E-05  0.0000000E+00  0.7701604E-04
  0.7525253E+00  0.0000000E+00  0.5050505E-02 -0.1953479E-05  0.0000000E+00  0.7294733E-04
  0.7626263E+00  0.0000000E+00  0.5050505E-02 -0.1843317E-05  0.0000000E+00  0.6910710E-04
  0.7727273E+00  0.0000000E+00  0.5050505E-02 -0.1736765E-05  0.0000000E+00  0.6548767E-04
  0.7828283E+00  0.0000000E+00  0.5050505E-02 -0.1633735E-05  0.0000000E+00  0.6208153E-04
  0.7929293E+00  0.0000000E+00  0.5050505E-02 -0.1534124E-05  0.0000000E+00  0.5888144E-04
  0.8030303E+00  0.0000000E+00  0.5050505E-02 -0.1437812E-05  0.0000000E+00  0.5588036E-04
  0.8131313E+00  0.0000000E+00  0.5050505E-02 -0.1344668E-05  0.0000000E+00  0.5307156E-04
  0.8232324E+00  0.0000000E+00  0.5050505E-02 -0.1254554E-05  0.0000000E+00  0.5044859E-04
  0.8333333E+00  0.0000000E+00  0.5050505E-02 -0.1167322E-05  0.0000000E+00  0.4800532E-04
  0.8434343E+00  0.0000000E+00  0.5050505E-02 -0.1082821E-05  0.0000000E+00  0.4573593E-04
  0.8535354E+00  0.0000000E+00  0.5050505E-02 -0.1000893E-05  0.0000000E+00  0.4363493E-04
  0.8636364E+00  0.0000000E+00  0.5050505E-02 -0.9213780E-06  0.0000000E+00  0.4169717E-04
  0.8737374E+00  0.0000000E+00  0.5050505E-02 -0.8441125E-06  0.0000000E+00  0.3991785E-04
  0.8838384E+00  0.0000000E+00  0.5050505E-02 -0.7689313E-06  0.0000000E+00  0.3829249E-04
  0.8939394E+00  0.0000000E+00  0.5050505E-02 -0.6956678E-06  0.0000000E+00  0.3681697E-04
  0.9040404E+00  0.0000000E+00  0.5050505E-02 -0.6241545E-06  0.0000000E+00  0.3548753E-04
  0.9141414E+00  0.0000000E+00  0.5050505E-02 -0.5542234E-06  0.0000000E+00  0.3430073E-04
  0.9242424E+00  0.0000000E+00  0.5050505E-02 -0.4857064E-06  0.0000000E+00  0.3325350E-04
  0.9343435E+00  0.0000000E+00  0.5050505E-02 -0.4184355E-06  0.0000000E+00  0.3234312E-04
  0.9444444E+00  0.0000000E+00  0.5050505E-02 -0.3522428E-06  0.0000000E+00  0.3156720E-04
  0.9545454E+00  0.0000000E+00  0.5050505E-02 -0.2869610E-06  0.0000000E+00  0.3092369E-04
  0.9646465E+00  0.0000000E+00  0.5050505E-02 -0.2224231E-06  0.0000000E+00  0.3041091E-04
  0.9747475E+00  0.0000000E+00  0.5050505E-02 -0.1584626E-06  0.0000000E+00  0.3002751E-04
  0.9848485E+00  0.0000000E+00  0.5050505E-02 -0.9491346E-07  0.0000000E+00  0.2977246E-04
  0.9974747E+00  0.0000000E+00  0.5050505E-02 -0.3161057E-07  0.0000000E+00  0.2964511E-04
  0.5050505E-02  0.0000000E+00  0.1515152E-01  0.7525604E-07  0.0000000E+00  0.1732302E-04
  0.1515152E-01  0.0000000E+00  0.1515152E-01  0.2261692E-06  0.0000000E+00  0.1742402E-04
  0.2525252E-01  0.0000000E+00  0.1515152E-01  0.3782917E-06  0.0000000E+00  0.1762655E-04
  0.3535353E-01  0.0000000E+00  0.1515152E-01  0.5324477E-06  0.0000000E+00  0.1793170E-04
  0.4545455E-01  0.0000000E+00  0.1515152E-01  0.6894867E-06  0.0000000E+00  0.1834113E-04
  0.5555556E-01  0.0000000E+00  0.1515152E-01  0.8502950E-06  0.0000000E+00  0.1885706E-04
  0.6565657E-01  0.0000000E+00  0.1515152E-01  0.1015806E-05  0.0000000E+00  0.1948234E-04
  0.7575758E-01  0.0000000E+00  0.1515152E-01  0.1187015E-05  0.0000000E+00  0.2022046E-04
  0.8585858E-01  0.0000000E+00  0.1515152E-01  0.1364992E-05  0.0000000E+00  0.2107560E-04
  0.9595960E-01  0.0000000E+00  0.1515152E-01  0.1550898E-05  0.0000000E+00  0.2205269E-04
  0.1060606E+00  0.0000000E+00  0.1515152E-01  0.1746007E-05  0.0000000E+00  0.2315749E-04
  0.1161616E+00  0.0000000E+00  0.1515152E-01  0.1951727E-05  0.0000000E+00  0.2439665E-04
  0.1262626E+00  0.0000000E+00  0.1515152E-01  0.2169624E-05  0.0000000E+00  0.2577781E-04
  0.1363636E+00  0.0000000E+00  0.1515152E-01  0.2401463E-05  0.0000000E+00  0.2730974E-04
  0.1464646E+00  0.0000000E+00  0.1515152E-01  0.2649241E-05  0.0000000E+00  0.2900246E-04
  0.1565657E+00  0.0000000E+00  0.1515152E-01  0.2915239E-05  0.0000000E+00  0.3086743E-04
  0.1666667E+00  0.0000000E+00  0.1515152E-01  0.3202087E-05  0.0000000E+00  0.3291774E-04
  0.1767677E+00  0.0000000E+00  0.1515152E-01  0.3512845E-05  0.0000000E+00  0.3516839E-04
  0.1868687E+00  0.0000000E+00  0.1515152E-01  0.3851106E-05  0.0000000E+00  0.3763658E-04
  0.1969697E+00  0.0000000E+00  0.1515152E-01  0.4221133E-05  0.0000000E+00  0.4034214E-04
  0.2070707E+00  0.0000000E+00  0.1515152E-01  0.4628048E-05  0.0000000E+00  0.4330798E-04
  0.2171717E+00  0.0000000E+00  0.1515152E-01  0.5078081E-05  0.0000000E+00  0.4656078E-04
  0.2272727E+00  0.0000000E+00  0.1515152E-01  0.5578924E-05  0.0000000E+00  0.5013176E-04
  0.2373737E+00  0.0000000E+00  0.1515152E-01  0.6140222E-05  0.0000000E+00  0.5405780E-04
  0.2474747E+00  0.0000000E+00  0.1515152E-01  0.6774304E-05  0.0000000E+00  0.5838289E-04
  0.2575758E+00  0.0000000E+00  0.1515152E-01  0.7497247E-05  0.0000000E+00  0.6316008E-04
  0.2676768E+00  0.0000000E+00  0.1515152E-01  0.8330523E-05  0.0000000E+00  0.6845431E-04
  0.2777778E+00  0.0000000E+00  0.1515152E-01  0.9303576E-05  0.0000000E+00  0.7434627E-04
  0.2878788E+00  0.0000000E+00  0.1515152E-01  0.1045804E-04  0.0000000E+00  0.8093819E-04
  0.2979798E+00  0.0000000E+00  0.1515152E-01  0.1185487E-04  0.0000000E+00  0.8836235E-04
  0.3080808E+00  0.0000000E+00  0.1515152E-01  0.1358708E-04  0.0000000E+00  0.9679386E-04
  0.3181818E+00  0.0000000E+00  0.1515152E-01  0.1580347E-04  0.0000000E+00  0.1064699E-03
  0.3282828E+00  0.0000000E+00  0.1515152E-01  0.1875601E-04  0.0000000E+00  0.1177165E-03
  0.3383838E+00  0.0000000E+00  0.1515152E-01  0.2290052E-04  0.0000000E+00  0.1309757E-03
  0.3484848E+00  0.0000000E+00  0.1515152E-01  0.2912665E-04  0.0000000E+00  0.1467743E-03
  0.3585859E+00  0.0000000E+00  0.1515152E-01  0.3932042E-04  0.0000000E+00  0.1653318E-03
  0.3686869E+00  0.0000000E+00  0.1515152E-01  0.5782581E-04  0.0000000E+00  0.1843131E-03
  0.3787879E+00  0.0000000E+00  0.1515152E-01  0.9540473E-04  0.0000000E+00  0.1875998E-03
  0.3888889E+00  0.0000000E+00  0.1515152E-01  0.2944199E-04  0.0000000E+00  0.2437139E-03
  0.3989899E+00  0.0000000E+00  0.1515152E-01 -0.2441676E-04  0.0000000E+00  0.2989545E-03
  0.4090909E+00  0.0000000E+00  0.1515152E-01 -0.1590770E-04  0.0000000E+00  0.2875598E-03
  0.4191919E+00  0.0000000E+00  0.1515152E-01 -0.9325933E-05  0.0000000E+00  0.2801908E-03
  0.4292929E+00  0.0000000E+00  0.1515152E-01 -0.5729665E-05  0.0000000E+00  0.2761209E-03
  0.4393939E+00  0.0000000E+00  0.1515152E-01 -0.4414613E-05  0.0000000E+00  0.2734373E-03
  0.4494950E+00  0.0000000E+00  0.1515152E-01 -0.4472281E-05  0.0000000E+00  0.2708818E-03
  0.4595959E+00  0.0000000E+00  0.1515152E-01 -0.5305370E-05  0.0000000E+00  0.2677931E-03
  0.4696970E+00  0.0000000E+00  0.1515152E-01 -0.6524988E-05  0.0000000E+00  0.2638375E-03
  0.4797980E+00  0.0000000E+00  0.1515152E-01 -0.7856562E-05  0.0000000E+00  0.2588925E-03
  0.4898990E+00  0.0000000E+00  0.1515152E-01 -0.9122039E-05  0.0000000E+00  0.2529835E-03
  0.5000000E+00  0.0000000E+00  0.1515152E-01 -0.1022372E-04  0.0000000E+00  0.2462226E-03
  0.5101010E+00  0.0000000E+00  0.1515152E-01 -0.1111983E-04  0.0000000E+00  0.2387607E-03
  0.5202020E+00  0.0000000E+00  0.1515152E-01 -0.1180199E-04  0.0000000E+00  0.2307574E-03
  0.5303030E+00  0.0000000E+00  0.1515152E-01 -0.1227996E-04  0.0000000E+00  0.2223661E-03
  0.5404040E+00  0.0000000E+00  0.1515152E-01 -0.1257279E-04  0.0000000E+00  0.2137260E-03
  0.5505050E+00  0.0000000E+00  0.1515152E-01 -0.1270390E-04  0.0000000E+00  0.2049594E-03
  0.5606061E+00  0.0000000E+00  0.1515152E-01 -0.1269815E-04  0.0000000E+00  0.1961698E-03
  0.5707071E+00  0.0000000E+00  0.1515152E-01 -0.1257986E-04  0.0000000E+00  0.1874427E-03
  0.5808081E+00  0.0000000E+00  0.1515152E-01 -0.1237160E-04  0.0000000E+00  0.1788467E-03
  0.5909091E+00  0.0000000E+00  0.1515152E-01 -0.1209348E-04  0.0000000E+00  0.1704348E-03
  0.6010101E+00  0.0000000E+00  0.1515152E-01 -0.1176277E-04  0.0000000E+00  0.1622474E-03
  0.6111111E+00  0.0000000E+00  0.1515152E-01 -0.1139392E-04  0.0000000E+00  0.1543135E-03
  0.6212121E+00  0.0000000E+00  0.1515152E-01 -0.1099875E-04  0.0000000E+00  0.1466533E-03
  0.6313131E+00  0.0000000E+00  0.1515152E-01 -0.1058671E-04  0.0000000E+00  0.1392797E-03
  0.6414142E+00  0.0000000E+00  0.1515152E-01 -0.1016525E-04  0.0000000E+00  0.1322000E-03
  0.6515151E+00  0.0000000E+00  0.1515152E-01 -0.9740127E-05  0.0000000E+00  0.1254174E-03
  0.6616161E+00  0.0000000E+00  0.1515152E-01 -0.9315727E-05  0.0000000E+00  0.1189313E-03
  0.6717172E+00  0.0000000E+00  0.1515152E-01 -0.8895346E-05  0.0000000E+00  0.1127390E-03
  0.6818182E+00  0.0000000E+00  0.1515152E-01 -0.8481411E-05  0.0000000E+00  0.1068359E-03
  0.6919192E+00  0.0000000E+00  0.1515152E-01 -0.8075676E-05  0.0000000E+00  0.1012162E-03
  0.7020202E+00  0.0000000E+00  0.1515152E-01 -0.7679375E-05  0.0000000E+00  0.9587298E-04
  0.7121212E+00  0.0000000E+00  0.1515152E-01 -0.7293343E-05  0.0000000E+00  0.9079889E-04
  0.7222222E+00  0.0000000E+00  0.1515152E-01 -0.6918108E-05  0.0000000E+00  0.8598615E-04
  0.7323232E+00  0.0000000E+00  0.1515152E-01 -0.6553968E-05  0.0000000E+00  0.8142678E-04
  0.7424242E+00  0.0000000E+00  0.1515152E-01 -0.6201043E-05  0.0000000E+00  0.7711272E-04
  0.7525253E+00  0.0000000E+00  0.1515152E-01 -0.5859316E-05  0.0000000E+00  0.7303595E-04
  0.7626263E+00  0.0000000E+00  0.1515152E-01 -0.5528666E-05  0.0000000E+00  0.6918852E-04
  0.7727273E+00  0.0000000E+00  0.1515152E-01 -0.5208887E-05  0.0000000E+00  0.6556265E-04
  0.7828283E+00  0.0000000E+00  0.1515152E-01 -0.4899712E-05  0.0000000E+00  0.6215077E-04
  0.7929293E+00  0.0000000E+00  0.1515152E-01 -0.4600821E-05  0.0000000E+00  0.5894554E-04
  0.8030303E+00  0.0000000E+00  0.1515152E-01 -0.4311852E-05  0.0000000E+00  0.5593987E-04
  0.8131313E+00  0.0000000E+00  0.1515152E-01 -0.4032411E-05  0.0000000E+00  0.5312696E-04
  0.8232324E+00  0.0000000E+00  0.1515152E-01 -0.3762078E-05  0.0000000E+00  0.5050032E-04
  0.8333333E+00  0.0000000E+00  0.1515152E-01 -0.3500410E-05  0.0000000E+00  0.4805376E-04
  0.8434343E+00  0.0000000E+00  0.1515152E-01 -0.3246947E-05  0.0000000E+00  0.4578143E-04
  0.8535354E+00  0.0000000E+00  0.1515152E-01 -0.3001217E-05  0.0000000E+00  0.4367781E-04
  0.8636364E+00  0.0000000E+00  0.1515152E-01 -0.2762736E-05  0.0000000E+00  0.4173771E-04
  0.8737374E+00  0.0000000E+00  0.1515152E-01 -0.2531013E-05  0.0000000E+00  0.3995631E-04
  0.8838384E+00  0.0000000E+00  0.1515152E-01 -0.2305550E-05  0.0000000E+00  0.3832910E-04
  0.8939394E+00  0.0000000E+00  0.1515152E-01 -0.2085847E-05  0.0000000E+00  0.3685195E-04
  0.9040404E+00  0.0000000E+00  0.1515152E-01 -0.1871401E-05  0.0000000E+00  0.3552107E-04
  0.9141414E+00  0.0000000E+00  0.1515152E-01 -0.1661706E-05  0.0000000E+00  0.3433302E-04
  0.9242424E+00  0.0000000E+00  0.1515152E-01 -0.1456258E-05  0.0000000E+00  0.3328471E-04
  0.9343435E+00  0.0000000E+00  0.1515152E-01 -0.1254552E-05  0.0000000E+00  0.3237339E-04
  0.9444444E+00  0.0000000E+00  0.1515152E-01 -0.1056084E-05  0.0000000E+00  0.3159668E-04
  0.9545454E+00  0.0000000E+00  0.1515152E-01 -0.8603510E-06  0.0000000E+00  0.3095254E-04
  0.9646465E+00  0.0000000E+00  0.1515152E-01 -0.6668523E-06  0.0000000E+00  0.3043925E-04
  0.9747475E+00  0.0000000E+00  0.1515152E-01 -0.4750878E-06  0.0000000E+00  0.3005546E-04
  0.9848485E+00  0.0000000E+00  0.1515152E-01 -0.2845595E-06  0.0000000E+00  0.2980017E-04
  0.9974747E+00  0.0000000E+00  0.1515152E-01 -0.9477119E-07  0.0000000E+00  0.2967269E-04
  0.5050505E-02  0.0000000E+00  0.2525252E-01  0.1251567E-06  0.0000000E+00  0.1734913E-04
  0.1515152E-01  0.0000000E+00  0.2525252E-01  0.3761351E-06  0.0000000E+00  0.1744989E-04
  0.2525252E-01  0.0000000E+00  0.2525252E-01  0.6291176E-06  0.0000000E+00  0.1765193E-04
  0.3535353E-01  0.0000000E+00  0.2525252E-01  0.8854692E-06  0.0000000E+00  0.1795632E-04
  0.4545455E-01  0.0000000E+00  0.2525252E-01  0.1146597E-05  0.0000000E+00  0.1836468E-04
  0.5555556E-01  0.0000000E+00  0.2525252E-01  0.1413967E-05  0.0000000E+00  0.1887922E-04
  0.6565657E-01  0.0000000E+00  0.2525252E-01  0.1689124E-05  0.0000000E+00  0.1950272E-04
  0.7575758E-01  0.0000000E+00  0.2525252E-01  0.1973713E-05  0.0000000E+00  0.2023862E-04
  0.8585858E-01  0.0000000E+00  0.2525252E-01  0.2269503E-05  0.0000000E+00  0.2109103E-04
  0.9595960E-01  0.0000000E+00  0.2525252E-01  0.2578412E-05  0.0000000E+00  0.2206479E-04
  0.1060606E+00  0.0000000E+00  0.2525252E-01  0.2902542E-05  0.0000000E+00  0.2316553E-04
  0.1161616E+00  0.0000000E+00  0.2525252E-01  0.3244211E-05  0.0000000E+00  0.2439978E-04
  0.1262626E+00  0.0000000E+00  0.2525252E-01  0.3606003E-05  0.0000000E+00  0.2577500E-04
  0.1363636E+00  0.0000000E+00  0.2525252E-01  0.3990818E-05  0.0000000E+00  0.2729976E-04
  0.1464646E+00  0.0000000E+00  0.2525252E-01  0.4401934E-05  0.0000000E+00  0.2898382E-04
  0.1565657E+00  0.0000000E+00  0.2525252E-01  0.4843094E-05  0.0000000E+00  0.3083832E-04
  0.1666667E+00  0.0000000E+00  0.2525252E-01  0.5318600E-05  0.0000000E+00  0.3287594E-04
  0.1767677E+00  0.0000000E+00  0.2525252E-01  0.5833446E-05  0.0000000E+00  0.3511118E-04
  0.1868687E+00  0.0000000E+00  0.2525252E-01  0.6393478E-05  0.0000000E+00  0.3756060E-04
  0.1969697E+00  0.0000000E+00  0.2525252E-01  0.7005616E-05  0.0000000E+00  0.4024317E-04
  0.2070707E+00  0.0000000E+00  0.2525252E-01  0.7678133E-05  0.0000000E+00  0.4318072E-04
  0.2171717E+00  0.0000000E+00  0.2525252E-01  0.8421050E-05  0.0000000E+00  0.4639844E-04
  0.2272727E+00  0.0000000E+00  0.2525252E-01  0.9246660E-05  0.0000000E+00  0.4992558E-04
  0.2373737E+00  0.0000000E+00  0.2525252E-01  0.1017028E-04  0.0000000E+00  0.5379630E-04
  0.2474747E+00  0.0000000E+00  0.2525252E-01  0.1121132E-04  0.0000000E+00  0.5805074E-04
  0.2575758E+00  0.0000000E+00  0.2525252E-01  0.1239483E-04  0.0000000E+00  0.6273649E-04
  0.2676768E+00  0.0000000E+00  0.2525252E-01  0.1375383E-04  0.0000000E+00  0.6791037E-04
  0.2777778E+00  0.0000000E+00  0.2525252E-01  0.1533287E-04  0.0000000E+00  0.7364087E-04
  0.2878788E+00  0.0000000E+00  0.2525252E-01  0.1719360E-04  0.0000000E+00  0.8001118E-04
  0.2979798E+00  0.0000000E+00  0.2525252E-01  0.1942384E-04  0.0000000E+00  0.8712277E-04
  0.3080808E+00  0.0000000E+00  0.2525252E-01  0.2215253E-04  0.0000000E+00  0.9509916E-04
  0.3181818E+00  0.0000000E+00  0.2525252E-01  0.2557532E-04  0.0000000E+00  0.1040875E-03
  0.3282828E+00  0.0000000E+00  0.2525252E-01  0.2999870E-04  0.0000000E+00  0.1142515E-03
  0.3383838E+00  0.0000000E+00  0.2525252E-01  0.3591638E-04  0.0000000E+00  0.1257366E-03
  0.3484848E+00  0.0000000E+00  0.2525252E-01  0.4413278E-04  0.0000000E+00  0.1385604E-03
  0.3585859E+00  0.0000000E+00  0.2525252E-01  0.5591486E-04  0.0000000E+00  0.1523382E-03
  0.3686869E+00  0.0000000E+00  0.2525252E-01  0.7291351E-04  0.0000000E+00  0.1658715E-03
  0.3787879E+00  0.0000000E+00  0.2525252E-01  0.9535558E-04  0.0000000E+00  0.1783302E-03
  0.3888889E+00  0.0000000E+00  0.2525252E-01  0.1112020E-03  0.0000000E+00  0.2063596E-03
  0.3989899E+00  0.0000000E+00  0.2525252E-01 -0.3728723E-05  0.0000000E+00  0.2563366E-03
  0.4090909E+00  0.0000000E+00  0.2525252E-01 -0.2434226E-04  0.0000000E+00  0.2802347E-03
  0.4191919E+00  0.0000000E+00  0.2525252E-01 -0.1233343E-04  0.0000000E+00  0.2756545E-03
  0.4292929E+00  0.0000000E+00  0.2525252E-01 -0.7064942E-05  0.0000000E+00  0.2751696E-03
  0.4393939E+00  0.0000000E+00  0.2525252E-01 -0.5826986E-05  0.0000000E+00  0.2749695E-03
  0.4494950E+00  0.0000000E+00  0.2525252E-01 -0.6565848E-05  0.0000000E+00  0.2738592E-03
  0.4595959E+00  0.0000000E+00  0.2525252E-01 -0.8383292E-05  0.0000000E+00  0.2715536E-03
  0.4696970E+00  0.0000000E+00  0.2525252E-01 -0.1072631E-04  0.0000000E+00  0.2679273E-03
  0.4797980E+00  0.0000000E+00  0.2525252E-01 -0.1315437E-04  0.0000000E+00  0.2629896E-03
  0.4898990E+00  0.0000000E+00  0.2525252E-01 -0.1538570E-04  0.0000000E+00  0.2568834E-03
  0.5000000E+00  0.0000000E+00  0.2525252E-01 -0.1728171E-04  0.0000000E+00  0.2498151E-03
  0.5101010E+00  0.0000000E+00  0.2525252E-01 -0.1879602E-04  0.0000000E+00  0.2419991E-03
  0.5202020E+00  0.0000000E+00  0.2525252E-01 -0.1993097E-04  0.0000000E+00  0.2336329E-03
  0.5303030E+00  0.0000000E+00  0.2525252E-01 -0.2071263E-04  0.0000000E+00  0.2248916E-03
  0.5404040E+00  0.0000000E+00  0.2525252E-01 -0.2117857E-04  0.0000000E+00  0.2159265E-03
  0.5505050E+00  0.0000000E+00  0.2525252E-01 -0.2137155E-04  0.0000000E+00  0.2068662E-03
  0.5606061E+00  0.0000000E+00  0.2525252E-01 -0.2133552E-04  0.0000000E+00  0.1978167E-03
  0.5707071E+00  0.0000000E+00  0.2525252E-01 -0.2111277E-04  0.0000000E+00  0.1888635E-03
  0.5808081E+00  0.0000000E+00  0.2525252E-01 -0.2074207E-04  0.0000000E+00  0.1800730E-03
  0.5909091E+00  0.0000000E+00  0.2525252E-01 -0.2025751E-04  0.0000000E+00  0.1714957E-03
  0.6010101E+00  0.0000000E+00  0.2525252E-01 -0.1968809E-04  0.0000000E+00  0.1631680E-03
  0.6111111E+00  0.0000000E+00  0.2525252E-01 -0.1905788E-04  0.0000000E+00  0.1551157E-03
  0.6212121E+00  0.0000000E+00  0.2525252E-01 -0.1838633E-04  0.0000000E+00  0.1473555E-03
  0.6313131E+00  0.0000000E+00  0.2525252E-01 -0.1768893E-04  0.0000000E+00  0.1398974E-03
  0.6414142E+00  0.0000000E+00  0.2525252E-01 -0.1697775E-04  0.0000000E+00  0.1327461E-03
  0.6515151E+00  0.0000000E+00  0.2525252E-01 -0.1626209E-04  0.0000000E+00  0.1259023E-03
  0.6616161E+00  0.0000000E+00  0.2525252E-01 -0.1554898E-04  0.0000000E+00  0.1193638E-03
  0.6717172E+00  0.0000000E+00  0.2525252E-01 -0.1484365E-04  0.0000000E+00  0.1131264E-03
  0.6818182E+00  0.0000000E+00  0.2525252E-01 -0.1414994E-04  0.0000000E+00  0.1071842E-03
  0.6919192E+00  0.0000000E+00  0.2525252E-01 -0.1347062E-04  0.0000000E+00  0.1015303E-03
  0.7020202E+00  0.0000000E+00  0.2525252E-01 -0.1280758E-04  0.0000000E+00  0.9615721E-04
  0.7121212E+00  0.0000000E+00  0.2525252E-01 -0.1216211E-04  0.0000000E+00  0.9105681E-04
  0.7222222E+00  0.0000000E+00  0.2525252E-01 -0.1153501E-04  0.0000000E+00  0.8622081E-04
  0.7323232E+00  0.0000000E+00  0.2525252E-01 -0.1092669E-04  0.0000000E+00  0.8164082E-04
  0.7424242E+00  0.0000000E+00  0.2525252E-01 -0.1033732E-04  0.0000000E+00  0.7730844E-04
  0.7525253E+00  0.0000000E+00  0.2525252E-01 -0.9766807E-05  0.0000000E+00  0.7321534E-04
  0.7626263E+00  0.0000000E+00  0.2525252E-01 -0.9214925E-05  0.0000000E+00  0.6935334E-04
  0.7727273E+00  0.0000000E+00  0.2525252E-01 -0.8681308E-05  0.0000000E+00  0.6571447E-04
  0.7828283E+00  0.0000000E+00  0.2525252E-01 -0.8165485E-05  0.0000000E+00  0.6229097E-04
  0.7929293E+00  0.0000000E+00  0.2525252E-01 -0.7666907E-05  0.0000000E+00  0.5907534E-04
  0.8030303E+00  0.0000000E+00  0.2525252E-01 -0.7184958E-05  0.0000000E+00  0.5606037E-04
  0.8131313E+00  0.0000000E+00  0.2525252E-01 -0.6718968E-05  0.0000000E+00  0.5323915E-04
  0.8232324E+00  0.0000000E+00  0.2525252E-01 -0.6268225E-05  0.0000000E+00  0.5060506E-04
  0.8333333E+00  0.0000000E+00  0.2525252E-01 -0.5831985E-05  0.0000000E+00  0.4815185E-04
  0.8434343E+00  0.0000000E+00  0.2525252E-01 -0.5409472E-05  0.0000000E+00  0.4587358E-04
  0.8535354E+00  0.0000000E+00  0.2525252E-01 -0.4999892E-05  0.0000000E+00  0.4376465E-04
  0.8636364E+00  0.0000000E+00  0.2525252E-01 -0.4602434E-05  0.0000000E+00  0.4181982E-04
  0.8737374E+00  0.0000000E+00  0.2525252E-01 -0.4216273E-05  0.0000000E+00  0.4003420E-04
  0.8838384E+00  0.0000000E+00  0.2525252E-01 -0.3840576E-05  0.0000000E+00  0.3840326E-04
  0.8939394E+00  0.0000000E+00  0.2525252E-01 -0.3474504E-05  0.0000000E+00  0.3692281E-04
  0.9040404E+00  0.0000000E+00  0.2525252E-01 -0.3117215E-05  0.0000000E+00  0.3558902E-04
  0.9141414E+00  0.0000000E+00  0.2525252E-01 -0.2767864E-05  0.0000000E+00  0.3439843E-04
  0.9242424E+00  0.0000000E+00  0.2525252E-01 -0.2425607E-05  0.0000000E+00  0.3334791E-04
  0.9343435E+00  0.0000000E+00  0.2525252E-01 -0.2089600E-05  0.0000000E+00  0.3243472E-04
  0.9444444E+00  0.0000000E+00  0.2525252E-01 -0.1759002E-05  0.0000000E+00  0.3165642E-04
  0.9545454E+00  0.0000000E+00  0.2525252E-01 -0.1432973E-05  0.0000000E+00  0.3101098E-04
  0.9646465E+00  0.0000000E+00  0.2525252E-01 -0.1110675E-05  0.0000000E+00  0.3049666E-04
  0.9747475E+00  0.0000000E+00  0.2525252E-01 -0.7912749E-06  0.0000000E+00  0.3011211E-04
  0.9848485E+00  0.0000000E+00  0.2525252E-01 -0.4739404E-06  0.0000000E+00  0.2985630E-04
  0.9974747E+00  0.0000000E+00  0.2525252E-01 -0.1578430E-06  0.0000000E+00  0.2972857E-04
  0.5050505E-02  0.0000000E+00  0.3535353E-01  0.1747667E-06  0.0000000E+00  0.1738919E-04
  0.1515152E-01  0.0000000E+00  0.3535353E-01  0.5252233E-06  0.0000000E+00  0.1748960E-04
  0.2525252E-01  0.0000000E+00  0.3535353E-01  0.8784626E-06  0.0000000E+00  0.1769092E-04
  0.3535353E-01  0.0000000E+00  0.3535353E-01  0.1236378E-05  0.0000000E+00  0.1799420E-04
  0.4545455E-01  0.0000000E+00  0.3535353E-01  0.1600922E-05  0.0000000E+00  0.1840102E-04
  0.5555556E-01  0.0000000E+00  0.3535353E-01  0.1974127E-05  0.0000000E+00  0.1891353E-04
  0.6565657E-01  0.0000000E+00  0.3535353E-01  0.2358133E-05  0.0000000E+00  0.1953446E-04
  0.7575758E-01  0.0000000E+00  0.3535353E-01  0.2755218E-05  0.0000000E+00  0.2026714E-04
  0.8585858E-01  0.0000000E+00  0.3535353E-01  0.3167827E-05  0.0000000E+00  0.2111558E-04
  0.9595960E-01  0.0000000E+00  0.3535353E-01  0.3598612E-05  0.0000000E+00  0.2208450E-04
  0.1060606E+00  0.0000000E+00  0.3535353E-01  0.4050473E-05  0.0000000E+00  0.2317935E-04
  0.1161616E+00  0.0000000E+00  0.3535353E-01  0.4526605E-05  0.0000000E+00  0.2440647E-04
  0.1262626E+00  0.0000000E+00  0.3535353E-01  0.5030564E-05  0.0000000E+00  0.2577308E-04
  0.1363636E+00  0.0000000E+00  0.3535353E-01  0.5566331E-05  0.0000000E+00  0.2728743E-04
  0.1464646E+00  0.0000000E+00  0.3535353E-01  0.6138401E-05  0.0000000E+00  0.2895893E-04
  0.1565657E+00  0.0000000E+00  0.3535353E-01  0.6751888E-05  0.0000000E+00  0.3079826E-04
  0.1666667E+00  0.0000000E+00  0.3535353E-01  0.7412658E-05  0.0000000E+00  0.3281754E-04
  0.1767677E+00  0.0000000E+00  0.3535353E-01  0.8127493E-05  0.0000000E+00  0.3503053E-04
  0.1868687E+00  0.0000000E+00  0.3535353E-01  0.8904301E-05  0.0000000E+00  0.3745289E-04
  0.1969697E+00  0.0000000E+00  0.3535353E-01  0.9752397E-05  0.0000000E+00  0.4010242E-04
  0.2070707E+00  0.0000000E+00  0.3535353E-01  0.1068286E-04  0.0000000E+00  0.4299941E-04
  0.2171717E+00  0.0000000E+00  0.3535353E-01  0.1170899E-04  0.0000000E+00  0.4616706E-04
  0.2272727E+00  0.0000000E+00  0.3535353E-01  0.1284702E-04  0.0000000E+00  0.4963193E-04
  0.2373737E+00  0.0000000E+00  0.3535353E-01  0.1411692E-04  0.0000000E+00  0.5342453E-04
  0.2474747E+00  0.0000000E+00  0.3535353E-01  0.1554372E-04  0.0000000E+00  0.5757996E-04
  0.2575758E+00  0.0000000E+00  0.3535353E-01  0.1715925E-04  0.0000000E+00  0.6213873E-04
  0.2676768E+00  0.0000000E+00  0.3535353E-01  0.1900469E-04  0.0000000E+00  0.6714749E-04
  0.2777778E+00  0.0000000E+00  0.3535353E-01  0.2113437E-04  0.0000000E+00  0.7265988E-04
  0.2878788E+00  0.0000000E+00  0.3535353E-01  0.2362135E-04  0.0000000E+00  0.7873684E-04
  0.2979798E+00  0.0000000E+00  0.3535353E-01  0.2656595E-04  0.0000000E+00  0.8544594E-04