title = "dataset water"
variables = "x", "y", "z", "vx", "vy", "vz"
zone t = "velocities, solution time =  6.000E+01 days        " i =   99, j =   99, k =    1,  f=point
  0.5050505E-02  0.0000000E+00  0.5050505E-02  0.1890098E-06  0.0000000E+00  0.2341384E-03
  0.1515152E-01  0.0000000E+00  0.5050505E-02  0.5680289E-06  0.0000000E+00  0.2349196E-03
  0.2525252E-01  0.0000000E+00  0.5050505E-02  0.9500886E-06  0.0000000E+00  0.2364864E-03
  0.3535353E-01  0.0000000E+00  0.5050505E-02  0.1337286E-05  0.0000000E+00  0.2388476E-03
  0.4545455E-01  0.0000000E+00  0.5050505E-02  0.1731789E-05  0.0000000E+00  0.2420167E-03
  0.5555556E-01  0.0000000E+00  0.5050505E-02  0.2135855E-05  0.0000000E+00  0.2460118E-03
  0.6565657E-01  0.0000000E+00  0.5050505E-02  0.2551873E-05  0.0000000E+00  0.2508564E-03
  0.7575758E-01  0.0000000E+00  0.5050505E-02  0.2982405E-05  0.0000000E+00  0.2565793E-03
  0.8585858E-01  0.0000000E+00  0.5050505E-02  0.3430260E-05  0.0000000E+00  0.2632151E-03
  0.9595960E-01  0.0000000E+00  0.5050505E-02  0.3898579E-05  0.0000000E+00  0.2708050E-03
  0.1060606E+00  0.0000000E+00  0.5050505E-02  0.4390961E-05  0.0000000E+00  0.2793978E-03
  0.1161616E+00  0.0000000E+00  0.5050505E-02  0.4911628E-05  0.0000000E+00  0.2890508E-03
  0.1262626E+00  0.0000000E+00  0.5050505E-02  0.5465664E-05  0.0000000E+00  0.2998316E-03
  0.1363636E+00  0.0000000E+00  0.5050505E-02  0.6059346E-05  0.0000000E+00  0.3118203E-03
  0.1464646E+00  0.0000000E+00  0.5050505E-02  0.6700655E-05  0.0000000E+00  0.3251131E-03
  0.1565657E+00  0.0000000E+00  0.5050505E-02  0.7400069E-05  0.0000000E+00  0.3398262E-03
  0.1666667E+00  0.0000000E+00  0.5050505E-02  0.8171881E-05  0.0000000E+00  0.3561034E-03
  0.1767677E+00  0.0000000E+00  0.5050505E-02  0.9036509E-05  0.0000000E+00  0.3741267E-03
  0.1868687E+00  0.0000000E+00  0.5050505E-02  0.1002469E-04  0.0000000E+00  0.3941342E-03
  0.1969697E+00  0.0000000E+00  0.5050505E-02  0.1118551E-04  0.0000000E+00  0.4164513E-03
  0.2070707E+00  0.0000000E+00  0.5050505E-02  0.1260191E-04  0.0000000E+00  0.4415479E-03
  0.2171717E+00  0.0000000E+00  0.5050505E-02  0.1442049E-04  0.0000000E+00  0.4701444E-03
  0.2272727E+00  0.0000000E+00  0.5050505E-02  0.1689963E-04  0.0000000E+00  0.5034045E-03
  0.2373737E+00  0.0000000E+00  0.5050505E-02  0.2042581E-04  0.0000000E+00  0.5432027E-03
  0.2474747E+00  0.0000000E+00  0.5050505E-02  0.2504523E-04  0.0000000E+00  0.5919212E-03
  0.2575758E+00  0.0000000E+00  0.5050505E-02  0.2659791E-04  0.0000000E+00  0.6475667E-03
  0.2676768E+00  0.0000000E+00  0.5050505E-02  0.2498791E-04  0.0000000E+00  0.7035098E-03
  0.2777778E+00  0.0000000E+00  0.5050505E-02  0.2424346E-04  0.0000000E+00  0.7572598E-03
  0.2878788E+00  0.0000000E+00  0.5050505E-02  0.2445202E-04  0.0000000E+00  0.8107688E-03
  0.2979798E+00  0.0000000E+00  0.5050505E-02  0.2584487E-04  0.0000000E+00  0.8663938E-03
  0.3080808E+00  0.0000000E+00  0.5050505E-02  0.2946120E-04  0.0000000E+00  0.9279709E-03
  0.3181818E+00  0.0000000E+00  0.5050505E-02  0.3987410E-04  0.0000000E+00  0.1005760E-02
  0.3282828E+00  0.0000000E+00  0.5050505E-02  0.4755030E-04  0.0000000E+00  0.1104734E-02
  0.3383838E+00  0.0000000E+00  0.5050505E-02  0.5440684E-04  0.0000000E+00  0.1221507E-02
  0.3484848E+00  0.0000000E+00  0.5050505E-02  0.7528609E-04  0.0000000E+00  0.1372200E-02
  0.3585859E+00  0.0000000E+00  0.5050505E-02  0.1194897E-03  0.0000000E+00  0.1602781E-02
  0.3686869E+00  0.0000000E+00  0.5050505E-02  0.2237042E-03  0.0000000E+00  0.2021148E-02
  0.3787879E+00  0.0000000E+00  0.5050505E-02  0.3156099E-03  0.0000000E+00  0.2711096E-02
  0.3888889E+00  0.0000000E+00  0.5050505E-02 -0.1317033E-04  0.0000000E+00  0.3106388E-02
  0.3989899E+00  0.0000000E+00  0.5050505E-02 -0.1174245E-03  0.0000000E+00  0.2925271E-02
  0.4090909E+00  0.0000000E+00  0.5050505E-02 -0.1337563E-03  0.0000000E+00  0.2585310E-02
  0.4191919E+00  0.0000000E+00  0.5050505E-02 -0.6501782E-04  0.0000000E+00  0.2322854E-02
  0.4292929E+00  0.0000000E+00  0.5050505E-02 -0.6974285E-05  0.0000000E+00  0.2229024E-02
  0.4393939E+00  0.0000000E+00  0.5050505E-02 -0.7459362E-05  0.0000000E+00  0.2210268E-02
  0.4494950E+00  0.0000000E+00  0.5050505E-02  0.4422812E-04  0.0000000E+00  0.2257998E-02
  0.4595959E+00  0.0000000E+00  0.5050505E-02 -0.4692740E-04  0.0000000E+00  0.2254541E-02
  0.4696970E+00  0.0000000E+00  0.5050505E-02 -0.2408782E-05  0.0000000E+00  0.2190549E-02
  0.4797980E+00  0.0000000E+00  0.5050505E-02  0.2532057E-04  0.0000000E+00  0.2220247E-02
  0.4898990E+00  0.0000000E+00  0.5050505E-02  0.7620566E-04  0.0000000E+00  0.2352576E-02
  0.5000000E+00  0.0000000E+00  0.5050505E-02  0.5733098E-04  0.0000000E+00  0.2528628E-02
  0.5101010E+00  0.0000000E+00  0.5050505E-02 -0.3832601E-04  0.0000000E+00  0.2553716E-02
  0.5202020E+00  0.0000000E+00  0.5050505E-02 -0.7757410E-04  0.0000000E+00  0.2400447E-02
  0.5303030E+00  0.0000000E+00  0.5050505E-02 -0.8754799E-04  0.0000000E+00  0.2186587E-02
  0.5404040E+00  0.0000000E+00  0.5050505E-02 -0.2096140E-04  0.0000000E+00  0.2047874E-02
  0.5505050E+00  0.0000000E+00  0.5050505E-02 -0.9796178E-04  0.0000000E+00  0.1899972E-02
  0.5606061E+00  0.0000000E+00  0.5050505E-02 -0.5678519E-04  0.0000000E+00  0.1709563E-02
  0.5707071E+00  0.0000000E+00  0.5050505E-02 -0.4689057E-04  0.0000000E+00  0.1584007E-02
  0.5808081E+00  0.0000000E+00  0.5050505E-02 -0.7512236E-04  0.0000000E+00  0.1439121E-02
  0.5909091E+00  0.0000000E+00  0.5050505E-02 -0.7933092E-04  0.0000000E+00  0.1259130E-02
  0.6010101E+00  0.0000000E+00  0.5050505E-02 -0.5080846E-04  0.0000000E+00  0.1109833E-02
  0.6111111E+00  0.0000000E+00  0.5050505E-02 -0.3743943E-04  0.0000000E+00  0.1009850E-02
  0.6212121E+00  0.0000000E+00  0.5050505E-02 -0.3019964E-04  0.0000000E+00  0.9339225E-03
  0.6313131E+00  0.0000000E+00  0.5050505E-02 -0.2570827E-04  0.0000000E+00  0.8716337E-03
  0.6414142E+00  0.0000000E+00  0.5050505E-02 -0.2245064E-04  0.0000000E+00  0.8183197E-03
  0.6515151E+00  0.0000000E+00  0.5050505E-02 -0.1994771E-04  0.0000000E+00  0.7716441E-03
  0.6616161E+00  0.0000000E+00  0.5050505E-02 -0.1805912E-04  0.0000000E+00  0.7300110E-03
  0.6717172E+00  0.0000000E+00  0.5050505E-02 -0.1669010E-04  0.0000000E+00  0.6921189E-03
  0.6818182E+00  0.0000000E+00  0.5050505E-02 -0.1571183E-04  0.0000000E+00  0.6569350E-03
  0.6919192E+00  0.0000000E+00  0.5050505E-02 -0.1496677E-04  0.0000000E+00  0.6237545E-03
  0.7020202E+00  0.0000000E+00  0.5050505E-02 -0.1431310E-04  0.0000000E+00  0.5922061E-03
  0.7121212E+00  0.0000000E+00  0.5050505E-02 -0.1365210E-04  0.0000000E+00  0.5621823E-03
  0.7222222E+00  0.0000000E+00  0.5050505E-02 -0.1293102E-04  0.0000000E+00  0.5337393E-03
  0.7323232E+00  0.0000000E+00  0.5050505E-02 -0.1214661E-04  0.0000000E+00  0.5069929E-03
  0.7424242E+00  0.0000000E+00  0.5050505E-02 -0.1132507E-04  0.0000000E+00  0.4820342E-03
  0.7525253E+00  0.0000000E+00  0.5050505E-02 -0.1049968E-04  0.0000000E+00  0.4588912E-03
  0.7626263E+00  0.0000000E+00  0.5050505E-02 -0.9698013E-05  0.0000000E+00  0.4375285E-03
  0.7727273E+00  0.0000000E+00  0.5050505E-02 -0.8937998E-05  0.0000000E+00  0.4178643E-03
  0.7828283E+00  0.0000000E+00  0.5050505E-02 -0.8228795E-05  0.0000000E+00  0.3997897E-03
  0.7929293E+00  0.0000000E+00  0.5050505E-02 -0.7573122E-05  0.0000000E+00  0.3831856E-03
  0.8030303E+00  0.0000000E+00  0.5050505E-02 -0.6969585E-05  0.0000000E+00  0.3679327E-03
  0.8131313E+00  0.0000000E+00  0.5050505E-02 -0.6414457E-05  0.0000000E+00  0.3539188E-03
  0.8232324E+00  0.0000000E+00  0.5050505E-02 -0.5902878E-05  0.0000000E+00  0.3410419E-03
  0.8333333E+00  0.0000000E+00  0.5050505E-02 -0.5429608E-05  0.0000000E+00  0.3292115E-03
  0.8434343E+00  0.0000000E+00  0.5050505E-02 -0.4989480E-05  0.0000000E+00  0.3183490E-03
  0.8535354E+00  0.0000000E+00  0.5050505E-02 -0.4577650E-05  0.0000000E+00  0.3083867E-03
  0.8636364E+00  0.0000000E+00  0.5050505E-02 -0.4189727E-05  0.0000000E+00  0.2992673E-03
  0.8737374E+00  0.0000000E+00  0.5050505E-02 -0.3821832E-05  0.0000000E+00  0.2909424E-03
  0.8838384E+00  0.0000000E+00  0.5050505E-02 -0.3470610E-05  0.0000000E+00  0.2833717E-03
  0.8939394E+00  0.0000000E+00  0.5050505E-02 -0.3133204E-05  0.0000000E+00  0.2765216E-03
  0.9040404E+00  0.0000000E+00  0.5050505E-02 -0.2807215E-05  0.0000000E+00  0.2703643E-03
  0.9141414E+00  0.0000000E+00  0.5050505E-02 -0.2490646E-05  0.0000000E+00  0.2648766E-03
  0.9242424E+00  0.0000000E+00  0.5050505E-02 -0.2181836E-05  0.0000000E+00  0.2600396E-03
  0.9343435E+00  0.0000000E+00  0.5050505E-02 -0.1879400E-05  0.0000000E+00  0.2558374E-03
  0.9444444E+00  0.0000000E+00  0.5050505E-02 -0.1582167E-05  0.0000000E+00  0.2522573E-03
  0.9545454E+00  0.0000000E+00  0.5050505E-02 -0.1289126E-05  0.0000000E+00  0.2492888E-03
  0.9646465E+00  0.0000000E+00  0.5050505E-02 -0.9993838E-06  0.0000000E+00  0.2469234E-03
  0.9747475E+00  0.0000000E+00  0.5050505E-02 -0.7121278E-06  0.0000000E+00  0.2451549E-03
  0.9848485E+00  0.0000000E+00  0.5050505E-02 -0.4266021E-06  0.0000000E+00  0.2439783E-03
  0.9974747E+00  0.0000000E+00  0.5050505E-02 -0.1420906E-06  0.0000000E+00  0.2433908E-03
  0.5050505E-02  0.0000000E+00  0.1515152E-01  0.5656128E-06  0.0000000E+00  0.2336751E-03
  0.1515152E-01  0.0000000E+00  0.1515152E-01  0.1699844E-05  0.0000000E+00  0.2344533E-03
  0.2525252E-01  0.0000000E+00  0.1515152E-01  0.2843199E-05  0.0000000E+00  0.2360138E-03
  0.3535353E-01  0.0000000E+00  0.1515152E-01  0.4001945E-05  0.0000000E+00  0.2383654E-03
  0.4545455E-01  0.0000000E+00  0.1515152E-01  0.5182550E-05  0.0000000E+00  0.2415214E-03
  0.5555556E-01  0.0000000E+00  0.1515152E-01  0.6391748E-05  0.0000000E+00  0.2454997E-03
  0.6565657E-01  0.0000000E+00  0.1515152E-01  0.7636644E-05  0.0000000E+00  0.2503235E-03
  0.7575758E-01  0.0000000E+00  0.1515152E-01  0.8924858E-05  0.0000000E+00  0.2560211E-03
  0.8585858E-01  0.0000000E+00  0.1515152E-01  0.1026472E-04  0.0000000E+00  0.2626265E-03
  0.9595960E-01  0.0000000E+00  0.1515152E-01  0.1166551E-04  0.0000000E+00  0.2701802E-03
  0.1060606E+00  0.0000000E+00  0.1515152E-01  0.1313788E-04  0.0000000E+00  0.2787298E-03
  0.1161616E+00  0.0000000E+00  0.1515152E-01  0.1469424E-04  0.0000000E+00  0.2883311E-03
  0.1262626E+00  0.0000000E+00  0.1515152E-01  0.1634952E-04  0.0000000E+00  0.2990496E-03
  0.1363636E+00  0.0000000E+00  0.1515152E-01  0.1812206E-04  0.0000000E+00  0.3109625E-03
  0.1464646E+00  0.0000000E+00  0.1515152E-01  0.2003502E-04  0.0000000E+00  0.3241617E-03
  0.1565657E+00  0.0000000E+00  0.1515152E-01  0.2211857E-04  0.0000000E+00  0.3387570E-03
  0.1666667E+00  0.0000000E+00  0.1515152E-01  0.2441342E-04  0.0000000E+00  0.3548823E-03
  0.1767677E+00  0.0000000E+00  0.1515152E-01  0.2697682E-04  0.0000000E+00  0.3727030E-03
  0.1868687E+00  0.0000000E+00  0.1515152E-01  0.2989348E-04  0.0000000E+00  0.3924284E-03
  0.1969697E+00  0.0000000E+00  0.1515152E-01  0.3329604E-04  0.0000000E+00  0.4143318E-03
  0.2070707E+00  0.0000000E+00  0.1515152E-01  0.3740574E-04  0.0000000E+00  0.4387853E-03
  0.2171717E+00  0.0000000E+00  0.1515152E-01  0.4261803E-04  0.0000000E+00  0.4663340E-03
  0.2272727E+00  0.0000000E+00  0.1515152E-01  0.4969562E-04  0.0000000E+00  0.4979014E-03
  0.2373737E+00  0.0000000E+00  0.1515152E-01  0.6024319E-04  0.0000000E+00  0.5355747E-03
  0.2474747E+00  0.0000000E+00  0.1515152E-01  0.7801378E-04  0.0000000E+00  0.5862825E-03
  0.2575758E+00  0.0000000E+00  0.1515152E-01  0.8270509E-04  0.0000000E+00  0.6481735E-03
  0.2676768E+00  0.0000000E+00  0.1515152E-01  0.7408589E-04  0.0000000E+00  0.7064291E-03
  0.2777778E+00  0.0000000E+00  0.1515152E-01  0.7175448E-04  0.0000000E+00  0.7583748E-03
  0.2878788E+00  0.0000000E+00  0.1515152E-01  0.7215401E-04  0.0000000E+00  0.8097600E-03
  0.2979798E+00  0.0000000E+00  0.1515152E-01  0.7538020E-04  0.0000000E+00  0.8619899E-03
  0.3080808E+00  0.0000000E+00  0.1515152E-01  0.8212699E-04  0.0000000E+00  0.9145593E-03
  0.3181818E+00  0.0000000E+00  0.1515152E-01  0.9476259E-04  0.0000000E+00  0.9578167E-03
  0.3282828E+00  0.0000000E+00  0.1515152E-01  0.1165838E-03  0.0000000E+00  0.9995040E-03
  0.3383838E+00  0.0000000E+00  0.1515152E-01  0.1515497E-03  0.0000000E+00  0.1072842E-02
  0.3484848E+00  0.0000000E+00  0.1515152E-01  0.2068446E-03  0.0000000E+00  0.1186509E-02
  0.3585859E+00  0.0000000E+00  0.1515152E-01  0.3100570E-03  0.0000000E+00  0.1334239E-02
  0.3686869E+00  0.0000000E+00  0.1515152E-01  0.5209071E-03  0.0000000E+00  0.1503685E-02
  0.3787879E+00  0.0000000E+00  0.1515152E-01  0.6323013E-03  0.0000000E+00  0.1595660E-02
  0.3888889E+00  0.0000000E+00  0.1515152E-01  0.3371895E-03  0.0000000E+00  0.2065691E-02
  0.3989899E+00  0.0000000E+00  0.1515152E-01 -0.2758875E-03  0.0000000E+00  0.2469169E-02
  0.4090909E+00  0.0000000E+00  0.1515152E-01 -0.3371780E-03  0.0000000E+00  0.2311748E-02
  0.4191919E+00  0.0000000E+00  0.1515152E-01 -0.1634786E-03  0.0000000E+00  0.2169121E-02
  0.4292929E+00  0.0000000E+00  0.1515152E-01 -0.2120680E-04  0.0000000E+00  0.2112775E-02
  0.4393939E+00  0.0000000E+00  0.1515152E-01 -0.1654665E-04  0.0000000E+00  0.2100365E-02
  0.4494950E+00  0.0000000E+00  0.1515152E-01  0.6403028E-04  0.0000000E+00  0.2067070E-02
  0.4595959E+00  0.0000000E+00  0.1515152E-01 -0.1047358E-03  0.0000000E+00  0.2020559E-02
  0.4696970E+00  0.0000000E+00  0.1515152E-01  0.5546606E-05  0.0000000E+00  0.2018559E-02
  0.4797980E+00  0.0000000E+00  0.1515152E-01  0.9540709E-04  0.0000000E+00  0.2092097E-02
  0.4898990E+00  0.0000000E+00  0.1515152E-01  0.1943443E-03  0.0000000E+00  0.2210038E-02
  0.5000000E+00  0.0000000E+00  0.1515152E-01  0.1307955E-03  0.0000000E+00  0.2292249E-02
  0.5101010E+00  0.0000000E+00  0.1515152E-01 -0.1066602E-03  0.0000000E+00  0.2274120E-02
  0.5202020E+00  0.0000000E+00  0.1515152E-01 -0.2730562E-03  0.0000000E+00  0.2078335E-02
  0.5303030E+00  0.0000000E+00  0.1515152E-01 -0.2186397E-03  0.0000000E+00  0.1868061E-02
  0.5404040E+00  0.0000000E+00  0.1515152E-01 -0.1034574E-03  0.0000000E+00  0.1733727E-02
  0.5505050E+00  0.0000000E+00  0.1515152E-01 -0.2320207E-03  0.0000000E+00  0.1610901E-02
  0.5606061E+00  0.0000000E+00  0.1515152E-01 -0.1443260E-03  0.0000000E+00  0.1527591E-02
  0.5707071E+00  0.0000000E+00  0.1515152E-01 -0.1432951E-03  0.0000000E+00  0.1429967E-02
  0.5808081E+00  0.0000000E+00  0.1515152E-01 -0.2241305E-03  0.0000000E+00  0.1284455E-02
  0.5909091E+00  0.0000000E+00  0.1515152E-01 -0.1964692E-03  0.0000000E+00  0.1154829E-02
  0.6010101E+00  0.0000000E+00  0.1515152E-01 -0.1389491E-03  0.0000000E+00  0.1068480E-02
  0.6111111E+00  0.0000000E+00  0.1515152E-01 -0.1066960E-03  0.0000000E+00  0.9897673E-03
  0.6212121E+00  0.0000000E+00  0.1515152E-01 -0.8797403E-04  0.0000000E+00  0.9227077E-03
  0.6313131E+00  0.0000000E+00  0.1515152E-01 -0.7587137E-04  0.0000000E+00  0.8643914E-03
  0.6414142E+00  0.0000000E+00  0.1515152E-01 -0.6654679E-04  0.0000000E+00  0.8130564E-03
  0.6515151E+00  0.0000000E+00  0.1515152E-01 -0.5917934E-04  0.0000000E+00  0.7677403E-03
  0.6616161E+00  0.0000000E+00  0.1515152E-01 -0.5361161E-04  0.0000000E+00  0.7272313E-03
  0.6717172E+00  0.0000000E+00  0.1515152E-01 -0.4963272E-04  0.0000000E+00  0.6902390E-03
  0.6818182E+00  0.0000000E+00  0.1515152E-01 -0.4685214E-04  0.0000000E+00  0.6556682E-03
  0.6919192E+00  0.0000000E+00  0.1515152E-01 -0.4475672E-04  0.0000000E+00  0.6228008E-03
  0.7020202E+00  0.0000000E+00  0.1515152E-01 -0.4289543E-04  0.0000000E+00  0.5913245E-03
  0.7121212E+00  0.0000000E+00  0.1515152E-01 -0.4096884E-04  0.0000000E+00  0.5612209E-03
  0.7222222E+00  0.0000000E+00  0.1515152E-01 -0.3881485E-04  0.0000000E+00  0.5326418E-03
  0.7323232E+00  0.0000000E+00  0.1515152E-01 -0.3644207E-04  0.0000000E+00  0.5057824E-03
  0.7424242E+00  0.0000000E+00  0.1515152E-01 -0.3395014E-04  0.0000000E+00  0.4807701E-03
  0.7525253E+00  0.0000000E+00  0.1515152E-01 -0.3145116E-04  0.0000000E+00  0.4576346E-03
  0.7626263E+00  0.0000000E+00  0.1515152E-01 -0.2903171E-04  0.0000000E+00  0.4363254E-03
  0.7727273E+00  0.0000000E+00  0.1515152E-01 -0.2674509E-04  0.0000000E+00  0.4167420E-03
  0.7828283E+00  0.0000000E+00  0.1515152E-01 -0.2461666E-04  0.0000000E+00  0.3987608E-03
  0.7929293E+00  0.0000000E+00  0.1515152E-01 -0.2265249E-04  0.0000000E+00  0.3822518E-03
  0.8030303E+00  0.0000000E+00  0.1515152E-01 -0.2084677E-04  0.0000000E+00  0.3670895E-03
  0.8131313E+00  0.0000000E+00  0.1515152E-01 -0.1918722E-04  0.0000000E+00  0.3531583E-03
  0.8232324E+00  0.0000000E+00  0.1515152E-01 -0.1765856E-04  0.0000000E+00  0.3403545E-03
  0.8333333E+00  0.0000000E+00  0.1515152E-01 -0.1624468E-04  0.0000000E+00  0.3285874E-03
  0.8434343E+00  0.0000000E+00  0.1515152E-01 -0.1492984E-04  0.0000000E+00  0.3177787E-03
  0.8535354E+00  0.0000000E+00  0.1515152E-01 -0.1369941E-04  0.0000000E+00  0.3078615E-03
  0.8636364E+00  0.0000000E+00  0.1515152E-01 -0.1254016E-04  0.0000000E+00  0.2987795E-03
  0.8737374E+00  0.0000000E+00  0.1515152E-01 -0.1144046E-04  0.0000000E+00  0.2904853E-03
  0.8838384E+00  0.0000000E+00  0.1515152E-01 -0.1039026E-04  0.0000000E+00  0.2829396E-03
  0.8939394E+00  0.0000000E+00  0.1515152E-01 -0.9381060E-05  0.0000000E+00  0.2761097E-03
  0.9040404E+00  0.0000000E+00  0.1515152E-01 -0.8405709E-05  0.0000000E+00  0.2699686E-03
  0.9141414E+00  0.0000000E+00  0.1515152E-01 -0.7458280E-05  0.0000000E+00  0.2644940E-03
  0.9242424E+00  0.0000000E+00  0.1515152E-01 -0.6533864E-05  0.0000000E+00  0.2596675E-03
  0.9343435E+00  0.0000000E+00  0.1515152E-01 -0.5628365E-05  0.0000000E+00  0.2554737E-03
  0.9444444E+00  0.0000000E+00  0.1515152E-01 -0.4738327E-05  0.0000000E+00  0.2519003E-03
  0.9545454E+00  0.0000000E+00  0.1515152E-01 -0.3860766E-05  0.0000000E+00  0.2489369E-03
  0.9646465E+00  0.0000000E+00  0.1515152E-01 -0.2993039E-05  0.0000000E+00  0.2465755E-03
  0.9747475E+00  0.0000000E+00  0.1515152E-01 -0.2132738E-05  0.0000000E+00  0.2448098E-03
  0.9848485E+00  0.0000000E+00  0.1515152E-01 -0.1277616E-05  0.0000000E+00  0.2436351E-03
  0.9974747E+00  0.0000000E+00  0.1515152E-01 -0.4255403E-06  0.0000000E+00  0.2430484E-03
  0.5050505E-02  0.0000000E+00  0.2525252E-01  0.9386714E-06  0.0000000E+00  0.2327626E-03
  0.1515152E-01  0.0000000E+00  0.2525252E-01  0.2821026E-05  0.0000000E+00  0.2335347E-03
  0.2525252E-01  0.0000000E+00  0.2525252E-01  0.4718550E-05  0.0000000E+00  0.2350828E-03
  0.3535353E-01  0.0000000E+00  0.2525252E-01  0.6641622E-05  0.0000000E+00  0.2374154E-03
  0.4545455E-01  0.0000000E+00  0.2525252E-01  0.8600921E-05  0.0000000E+00  0.2405456E-03
  0.5555556E-01  0.0000000E+00  0.2525252E-01  0.1060754E-04  0.0000000E+00  0.2444908E-03
  0.6565657E-01  0.0000000E+00  0.2525252E-01  0.1267315E-04  0.0000000E+00  0.2492737E-03
  0.7575758E-01  0.0000000E+00  0.2525252E-01  0.1481022E-04  0.0000000E+00  0.2549217E-03
  0.8585858E-01  0.0000000E+00  0.2525252E-01  0.1703232E-04  0.0000000E+00  0.2614677E-03
  0.9595960E-01  0.0000000E+00  0.2525252E-01  0.1935455E-04  0.0000000E+00  0.2689507E-03
  0.1060606E+00  0.0000000E+00  0.2525252E-01  0.2179407E-04  0.0000000E+00  0.2774160E-03
  0.1161616E+00  0.0000000E+00  0.2525252E-01  0.2437088E-04  0.0000000E+00  0.2869167E-03
  0.1262626E+00  0.0000000E+00  0.2525252E-01  0.2710880E-04  0.0000000E+00  0.2975144E-03
  0.1363636E+00  0.0000000E+00  0.2525252E-01  0.3003688E-04  0.0000000E+00  0.3092808E-03
  0.1464646E+00  0.0000000E+00  0.2525252E-01  0.3319140E-04  0.0000000E+00  0.3223000E-03
  0.1565657E+00  0.0000000E+00  0.2525252E-01  0.3661886E-04  0.0000000E+00  0.3366707E-03
  0.1666667E+00  0.0000000E+00  0.2525252E-01  0.4038062E-04  0.0000000E+00  0.3525094E-03
  0.1767677E+00  0.0000000E+00  0.2525252E-01  0.4456056E-04  0.0000000E+00  0.3699536E-03
  0.1868687E+00  0.0000000E+00  0.2525252E-01  0.4927809E-04  0.0000000E+00  0.3891661E-03
  0.1969697E+00  0.0000000E+00  0.2525252E-01  0.5471132E-04  0.0000000E+00  0.4103355E-03
  0.2070707E+00  0.0000000E+00  0.2525252E-01  0.6113981E-04  0.0000000E+00  0.4336686E-03
  0.2171717E+00  0.0000000E+00  0.2525252E-01  0.6902807E-04  0.0000000E+00  0.4593443E-03
  0.2272727E+00  0.0000000E+00  0.2525252E-01  0.7920195E-04  0.0000000E+00  0.4873169E-03
  0.2373737E+00  0.0000000E+00  0.2525252E-01  0.9327054E-04  0.0000000E+00  0.5164713E-03
  0.2474747E+00  0.0000000E+00  0.2525252E-01  0.1148215E-03  0.0000000E+00  0.5407459E-03
  0.2575758E+00  0.0000000E+00  0.2525252E-01  0.1231452E-03  0.0000000E+00  0.5622648E-03
  0.2676768E+00  0.0000000E+00  0.2525252E-01  0.1176676E-03  0.0000000E+00  0.5951817E-03
  0.2777778E+00  0.0000000E+00  0.2525252E-01  0.1170622E-03  0.0000000E+00  0.6401939E-03
  0.2878788E+00  0.0000000E+00  0.2525252E-01  0.1175493E-03  0.0000000E+00  0.6884225E-03
  0.2979798E+00  0.0000000E+00  0.2525252E-01  0.1219796E-03  0.0000000E+00  0.7379821E-03
  0.3080808E+00  0.0000000E+00  0.2525252E-01  0.1297498E-03  0.0000000E+00  0.7904447E-03
  0.3181818E+00  0.0000000E+00  0.2525252E-01  0.1412923E-03  0.0000000E+00  0.8528997E-03
  0.3282828E+00  0.0000000E+00  0.2525252E-01  0.1739247E-03  0.0000000E+00  0.9286964E-03
  0.3383838E+00  0.0000000E+00  0.2525252E-01  0.2315127E-03  0.0000000E+00  0.1011712E-02
  0.3484848E+00  0.0000000E+00  0.2525252E-01  0.2979015E-03  0.0000000E+00  0.1094519E-02
  0.3585859E+00  0.0000000E+00  0.2525252E-01  0.4110055E-03  0.0000000E+00  0.1170081E-02
  0.3686869E+00  0.0000000E+00  0.2525252E-01  0.5975395E-03  0.0000000E+00  0.1211322E-02
  0.3787879E+00  0.0000000E+00  0.2525252E-01  0.6524982E-03  0.0000000E+00  0.1241192E-02
  0.3888889E+00  0.0000000E+00  0.2525252E-01  0.7520551E-03  0.0000000E+00  0.1325197E-02
  0.3989899E+00  0.0000000E+00  0.2525252E-01 -0.6266699E-04  0.0000000E+00  0.1719313E-02
  0.4090909E+00  0.0000000E+00  0.2525252E-01 -0.4185871E-03  0.0000000E+00  0.2030296E-02
  0.4191919E+00  0.0000000E+00  0.2525252E-01 -0.2131278E-03  0.0000000E+00  0.1981611E-02
  0.4292929E+00  0.0000000E+00  0.2525252E-01 -0.3981259E-04  0.0000000E+00  0.1939708E-02
  0.4393939E+00  0.0000000E+00  0.2525252E-01 -0.1657268E-04  0.0000000E+00  0.1925300E-02
  0.4494950E+00  0.0000000E+00  0.2525252E-01  0.1109830E-04  0.0000000E+00  0.1888813E-02
  0.4595959E+00  0.0000000E+00  0.2525252E-01 -0.1049208E-03  0.0000000E+00  0.1862706E-02
  0.4696970E+00  0.0000000E+00  0.2525252E-01  0.2833328E-04  0.0000000E+00  0.1892187E-02
  0.4797980E+00  0.0000000E+00  0.2525252E-01  0.1575272E-03  0.0000000E+00  0.1935461E-02
  0.4898990E+00  0.0000000E+00  0.2525252E-01  0.2665323E-03  0.0000000E+00  0.2006529E-02
  0.5000000E+00  0.0000000E+00  0.2525252E-01  0.1503544E-03  0.0000000E+00  0.2059851E-02
  0.5101010E+00  0.0000000E+00  0.2525252E-01 -0.2289516E-03  0.0000000E+00  0.1941750E-02
  0.5202020E+00  0.0000000E+00  0.2525252E-01 -0.4193930E-03  0.0000000E+00  0.1774737E-02
  0.5303030E+00  0.0000000E+00  0.2525252E-01 -0.2916641E-03  0.0000000E+00  0.1693796E-02
  0.5404040E+00  0.0000000E+00  0.2525252E-01 -0.2211360E-03  0.0000000E+00  0.1581912E-02
  0.5505050E+00  0.0000000E+00  0.2525252E-01 -0.2811340E-03  0.0000000E+00  0.1492115E-02
  0.5606061E+00  0.0000000E+00  0.2525252E-01 -0.2133099E-03  0.0000000E+00  0.1426346E-02
  0.5707071E+00  0.0000000E+00  0.2525252E-01 -0.2784037E-03  0.0000000E+00  0.1277997E-02
  0.5808081E+00  0.0000000E+00  0.2525252E-01 -0.3149014E-03  0.0000000E+00  0.1156605E-02
  0.5909091E+00  0.0000000E+00  0.2525252E-01 -0.2695280E-03  0.0000000E+00  0.1095142E-02
  0.6010101E+00  0.0000000E+00  0.2525252E-01 -0.2045490E-03  0.0000000E+00  0.1021742E-02
  0.6111111E+00  0.0000000E+00  0.2525252E-01 -0.1635922E-03  0.0000000E+00  0.9605150E-03
  0.6212121E+00  0.0000000E+00  0.2525252E-01 -0.1395139E-03  0.0000000E+00  0.9047029E-03
  0.6313131E+00  0.0000000E+00  0.2525252E-01 -0.1232683E-03  0.0000000E+00  0.8517784E-03
  0.6414142E+00  0.0000000E+00  0.2525252E-01 -0.1086436E-03  0.0000000E+00  0.8031673E-03
  0.6515151E+00  0.0000000E+00  0.2525252E-01 -0.9657572E-04  0.0000000E+00  0.7602164E-03
  0.6616161E+00  0.0000000E+00  0.2525252E-01 -0.8753923E-04  0.0000000E+00  0.7219392E-03
  0.6717172E+00  0.0000000E+00  0.2525252E-01 -0.8132515E-04  0.0000000E+00  0.6868002E-03
  0.6818182E+00  0.0000000E+00  0.2525252E-01 -0.7723164E-04  0.0000000E+00  0.6534642E-03
  0.6919192E+00  0.0000000E+00  0.2525252E-01 -0.7422036E-04  0.0000000E+00  0.6211659E-03
  0.7020202E+00  0.0000000E+00  0.2525252E-01 -0.7144659E-04  0.0000000E+00  0.5897478E-03
  0.7121212E+00  0.0000000E+00  0.2525252E-01 -0.6842132E-04  0.0000000E+00  0.5593918E-03
  0.7222222E+00  0.0000000E+00  0.2525252E-01 -0.6483963E-04  0.0000000E+00  0.5304625E-03
  0.7323232E+00  0.0000000E+00  0.2525252E-01 -0.6079523E-04  0.0000000E+00  0.5033381E-03
  0.7424242E+00  0.0000000E+00  0.2525252E-01 -0.5653503E-04  0.0000000E+00  0.4782136E-03
  0.7525253E+00  0.0000000E+00  0.2525252E-01 -0.5228635E-04  0.0000000E+00  0.4551043E-03
  0.7626263E+00  0.0000000E+00  0.2525252E-01 -0.4820303E-04  0.0000000E+00  0.4339165E-03
  0.7727273E+00  0.0000000E+00  0.2525252E-01 -0.4436909E-04  0.0000000E+00  0.4145073E-03
  0.7828283E+00  0.0000000E+00  0.2525252E-01 -0.4081845E-04  0.0000000E+00  0.3967208E-03
  0.7929293E+00  0.0000000E+00  0.2525252E-01 -0.3755362E-04  0.0000000E+00  0.3804068E-03
  0.8030303E+00  0.0000000E+00  0.2525252E-01 -0.3455944E-04  0.0000000E+00  0.3654278E-03
  0.8131313E+00  0.0000000E+00  0.2525252E-01 -0.3181181E-04  0.0000000E+00  0.3516621E-03
  0.8232324E+00  0.0000000E+00  0.2525252E-01 -0.2928308E-04  0.0000000E+00  0.3390038E-03
  0.8333333E+00  0.0000000E+00  0.2525252E-01 -0.2694510E-04  0.0000000E+00  0.3273620E-03
  0.8434343E+00  0.0000000E+00  0.2525252E-01 -0.2477095E-04  0.0000000E+00  0.3166595E-03
  0.8535354E+00  0.0000000E+00  0.2525252E-01 -0.2273585E-04  0.0000000E+00  0.3068310E-03
  0.8636364E+00  0.0000000E+00  0.2525252E-01 -0.2081765E-04  0.0000000E+00  0.2978222E-03
  0.8737374E+00  0.0000000E+00  0.2525252E-01 -0.1899695E-04  0.0000000E+00  0.2895879E-03
  0.8838384E+00  0.0000000E+00  0.2525252E-01 -0.1725710E-04  0.0000000E+00  0.2820908E-03
  0.8939394E+00  0.0000000E+00  0.2525252E-01 -0.1558406E-04  0.0000000E+00  0.2753000E-03
  0.9040404E+00  0.0000000E+00  0.2525252E-01 -0.1396614E-04  0.0000000E+00  0.2691904E-03
  0.9141414E+00  0.0000000E+00  0.2525252E-01 -0.1239365E-04  0.0000000E+00  0.2637411E-03
  0.9242424E+00  0.0000000E+00  0.2525252E-01 -0.1085865E-04  0.0000000E+00  0.2589348E-03
  0.9343435E+00  0.0000000E+00  0.2525252E-01 -0.9354504E-05  0.0000000E+00  0.2547572E-03
  0.9444444E+00  0.0000000E+00  0.2525252E-01 -0.7875641E-05  0.0000000E+00  0.2511967E-03
  0.9545454E+00  0.0000000E+00  0.2525252E-01 -0.6417239E-05  0.0000000E+00  0.2482434E-03
  0.9646465E+00  0.0000000E+00  0.2525252E-01 -0.4975015E-05  0.0000000E+00  0.2458897E-03
  0.9747475E+00  0.0000000E+00  0.2525252E-01 -0.3545048E-05  0.0000000E+00  0.2441295E-03
  0.9848485E+00  0.0000000E+00  0.2525252E-01 -0.2123659E-05  0.0000000E+00  0.2429584E-03
  0.9974747E+00  0.0000000E+00  0.2525252E-01 -0.7073321E-06  0.0000000E+00  0.2423735E-03
  0.5050505E-02  0.0000000E+00  0.3535353E-01  0.1306790E-05  0.0000000E+00  0.2314174E-03
  0.1515152E-01  0.0000000E+00  0.3535353E-01  0.3927359E-05  0.0000000E+00  0.2321803E-03
  0.2525252E-01  0.0000000E+00  0.3535353E-01  0.6569050E-05  0.0000000E+00  0.2337101E-03
  0.3535353E-01  0.0000000E+00  0.3535353E-01  0.9246256E-05  0.0000000E+00  0.2360148E-03
  0.4545455E-01  0.0000000E+00  0.3535353E-01  0.1197374E-04  0.0000000E+00  0.2391070E-03
  0.5555556E-01  0.0000000E+00  0.3535353E-01  0.1476679E-04  0.0000000E+00  0.2430038E-03
  0.6565657E-01  0.0000000E+00  0.3535353E-01  0.1764139E-04  0.0000000E+00  0.2477268E-03
  0.7575758E-01  0.0000000E+00  0.3535353E-01  0.2061457E-04  0.0000000E+00  0.2533023E-03
  0.8585858E-01  0.0000000E+00  0.3535353E-01  0.2370473E-04  0.0000000E+00  0.2597618E-03
  0.9595960E-01  0.0000000E+00  0.3535353E-01  0.2693222E-04  0.0000000E+00  0.2671420E-03
  0.1060606E+00  0.0000000E+00  0.3535353E-01  0.3032003E-04  0.0000000E+00  0.2754855E-03
  0.1161616E+00  0.0000000E+00  0.3535353E-01  0.3389471E-04  0.0000000E+00  0.2848412E-03
  0.1262626E+00  0.0000000E+00  0.3535353E-01  0.3768765E-04  0.0000000E+00  0.2952656E-03
  0.1363636E+00  0.0000000E+00  0.3535353E-01  0.4173670E-04  0.0000000E+00  0.3068232E-03
  0.1464646E+00  0.0000000E+00  0.3535353E-01  0.4608842E-04  0.0000000E+00  0.3195881E-03
  0.1565657E+00  0.0000000E+00  0.3535353E-01  0.5080123E-04  0.0000000E+00  0.3336450E-03
  0.1666667E+00  0.0000000E+00  0.3535353E-01  0.5594996E-04  0.0000000E+00  0.3490899E-03
  0.1767677E+00  0.0000000E+00  0.3535353E-01  0.6163284E-04  0.0000000E+00  0.3660298E-03
  0.1868687E+00  0.0000000E+00  0.3535353E-01  0.6798228E-04  0.0000000E+00  0.3845797E-03
  0.1969697E+00  0.0000000E+00  0.3535353E-01  0.7518181E-04  0.0000000E+00  0.4048523E-03
  0.2070707E+00  0.0000000E+00  0.3535353E-01  0.8349137E-04  0.0000000E+00  0.4269330E-03
  0.2171717E+00  0.0000000E+00  0.3535353E-01  0.9328000E-04  0.0000000E+00  0.4508204E-03
  0.2272727E+00  0.0000000E+00  0.3535353E-01  0.1050435E-03  0.0000000E+00  0.4762937E-03
  0.2373737E+00  0.0000000E+00  0.3535353E-01  0.1192825E-03  0.0000000E+00  0.5026785E-03
  0.2474747E+00  0.0000000E+00  0.3535353E-01  0.1356401E-03  0.0000000E+00  0.5288723E-03
  0.2575758E+00  0.0000000E+00  0.3535353E-01  0.1484491E-03  0.0000000E+00  0.5573180E-03
  0.2676768E+00  0.0000000E+00  0.3535353E-01  0.1571208E-03  0.0000000E+00  0.5944968E-03
  0.2777778E+00  0.0000000E+00  0.3535353E-01  0.1617622E-03  0.0000000E+00  0.6408016E-03
  0.2878788E+00  0.0000000E+00  0.3535353E-01  0.1596642E-03  0.0000000E+00  0.6874701E-03
  0.2979798E+00  0.0000000E+00  0.3535353E-01  0.1658633E-03  0.0000000E+00  0.7327400E-03