title = "dataset water"
variables = "x", "y", "z", "vx", "vy", "vz"
zone t = "velocities, solution time =  5.700E+01 days        " i =   99, j =   99, k =    1,  f=point
  0.5050505E-02  0.0000000E+00  0.5050505E-02  0.1615937E-06  0.0000000E+00  0.1983776E-03
  0.1515152E-01  0.0000000E+00  0.5050505E-02  0.4857169E-06  0.0000000E+00  0.1990428E-03
  0.2525252E-01  0.0000000E+00  0.5050505E-02  0.8126806E-06  0.0000000E+00  0.2003770E-03
  0.3535353E-01  0.0000000E+00  0.5050505E-02  0.1144438E-05  0.0000000E+00  0.2023884E-03
  0.4545455E-01  0.0000000E+00  0.5050505E-02  0.1483005E-05  0.0000000E+00  0.2050894E-03
  0.5555556E-01  0.0000000E+00  0.5050505E-02  0.1830480E-05  0.0000000E+00  0.2084968E-03
  0.6565657E-01  0.0000000E+00  0.5050505E-02  0.2189074E-05  0.0000000E+00  0.2126320E-03
  0.7575758E-01  0.0000000E+00  0.5050505E-02  0.2561147E-05  0.0000000E+00  0.2175214E-03
  0.8585858E-01  0.0000000E+00  0.5050505E-02  0.2949249E-05  0.0000000E+00  0.2231965E-03
  0.9595960E-01  0.0000000E+00  0.5050505E-02  0.3356190E-05  0.0000000E+00  0.2296950E-03
  0.1060606E+00  0.0000000E+00  0.5050505E-02  0.3785119E-05  0.0000000E+00  0.2370607E-03
  0.1161616E+00  0.0000000E+00  0.5050505E-02  0.4239631E-05  0.0000000E+00  0.2453451E-03
  0.1262626E+00  0.0000000E+00  0.5050505E-02  0.4723924E-05  0.0000000E+00  0.2546079E-03
  0.1363636E+00  0.0000000E+00  0.5050505E-02  0.5243004E-05  0.0000000E+00  0.2649192E-03
  0.1464646E+00  0.0000000E+00  0.5050505E-02  0.5802984E-05  0.0000000E+00  0.2763612E-03
  0.1565657E+00  0.0000000E+00  0.5050505E-02  0.6411516E-05  0.0000000E+00  0.2890312E-03
  0.1666667E+00  0.0000000E+00  0.5050505E-02  0.7078454E-05  0.0000000E+00  0.3030457E-03
  0.1767677E+00  0.0000000E+00  0.5050505E-02  0.7816889E-05  0.0000000E+00  0.3185466E-03
  0.1868687E+00  0.0000000E+00  0.5050505E-02  0.8644865E-05  0.0000000E+00  0.3357098E-03
  0.1969697E+00  0.0000000E+00  0.5050505E-02  0.9588344E-05  0.0000000E+00  0.3547595E-03
  0.2070707E+00  0.0000000E+00  0.5050505E-02  0.1068657E-04  0.0000000E+00  0.3759914E-03
  0.2171717E+00  0.0000000E+00  0.5050505E-02  0.1200214E-04  0.0000000E+00  0.3998122E-03
  0.2272727E+00  0.0000000E+00  0.5050505E-02  0.1364050E-04  0.0000000E+00  0.4268123E-03
  0.2373737E+00  0.0000000E+00  0.5050505E-02  0.1578611E-04  0.0000000E+00  0.4578985E-03
  0.2474747E+00  0.0000000E+00  0.5050505E-02  0.1875547E-04  0.0000000E+00  0.4945266E-03
  0.2575758E+00  0.0000000E+00  0.5050505E-02  0.2297043E-04  0.0000000E+00  0.5389712E-03
  0.2676768E+00  0.0000000E+00  0.5050505E-02  0.2809047E-04  0.0000000E+00  0.5936526E-03
  0.2777778E+00  0.0000000E+00  0.5050505E-02  0.2654196E-04  0.0000000E+00  0.6525197E-03
  0.2878788E+00  0.0000000E+00  0.5050505E-02  0.2583227E-04  0.0000000E+00  0.7093547E-03
  0.2979798E+00  0.0000000E+00  0.5050505E-02  0.2658282E-04  0.0000000E+00  0.7666260E-03
  0.3080808E+00  0.0000000E+00  0.5050505E-02  0.2957617E-04  0.0000000E+00  0.8284156E-03
  0.3181818E+00  0.0000000E+00  0.5050505E-02  0.3905444E-04  0.0000000E+00  0.9045093E-03
  0.3282828E+00  0.0000000E+00  0.5050505E-02  0.4576241E-04  0.0000000E+00  0.9993876E-03
  0.3383838E+00  0.0000000E+00  0.5050505E-02  0.5137026E-04  0.0000000E+00  0.1109259E-02
  0.3484848E+00  0.0000000E+00  0.5050505E-02  0.6979571E-04  0.0000000E+00  0.1248190E-02
  0.3585859E+00  0.0000000E+00  0.5050505E-02  0.1093456E-03  0.0000000E+00  0.1457176E-02
  0.3686869E+00  0.0000000E+00  0.5050505E-02  0.2045079E-03  0.0000000E+00  0.1833229E-02
  0.3787879E+00  0.0000000E+00  0.5050505E-02  0.2891668E-03  0.0000000E+00  0.2451135E-02
  0.3888889E+00  0.0000000E+00  0.5050505E-02 -0.9277078E-05  0.0000000E+00  0.2808615E-02
  0.3989899E+00  0.0000000E+00  0.5050505E-02 -0.1013302E-03  0.0000000E+00  0.2659390E-02
  0.4090909E+00  0.0000000E+00  0.5050505E-02 -0.1247416E-03  0.0000000E+00  0.2361127E-02
  0.4191919E+00  0.0000000E+00  0.5050505E-02 -0.5153772E-04  0.0000000E+00  0.2133316E-02
  0.4292929E+00  0.0000000E+00  0.5050505E-02 -0.3013114E-05  0.0000000E+00  0.2063559E-02
  0.4393939E+00  0.0000000E+00  0.5050505E-02 -0.1037982E-04  0.0000000E+00  0.2046487E-02
  0.4494950E+00  0.0000000E+00  0.5050505E-02  0.2116757E-04  0.0000000E+00  0.2060229E-02
  0.4595959E+00  0.0000000E+00  0.5050505E-02 -0.2125066E-04  0.0000000E+00  0.2060124E-02
  0.4696970E+00  0.0000000E+00  0.5050505E-02  0.2895755E-05  0.0000000E+00  0.2036743E-02
  0.4797980E+00  0.0000000E+00  0.5050505E-02  0.2194374E-04  0.0000000E+00  0.2068408E-02
  0.4898990E+00  0.0000000E+00  0.5050505E-02  0.6432617E-04  0.0000000E+00  0.2178914E-02
  0.5000000E+00  0.0000000E+00  0.5050505E-02  0.3634483E-04  0.0000000E+00  0.2308947E-02
  0.5101010E+00  0.0000000E+00  0.5050505E-02 -0.6290812E-04  0.0000000E+00  0.2274855E-02
  0.5202020E+00  0.0000000E+00  0.5050505E-02 -0.7922678E-04  0.0000000E+00  0.2092800E-02
  0.5303030E+00  0.0000000E+00  0.5050505E-02 -0.5395276E-04  0.0000000E+00  0.1924967E-02
  0.5404040E+00  0.0000000E+00  0.5050505E-02 -0.2544934E-04  0.0000000E+00  0.1826041E-02
  0.5505050E+00  0.0000000E+00  0.5050505E-02 -0.8921652E-04  0.0000000E+00  0.1686577E-02
  0.5606061E+00  0.0000000E+00  0.5050505E-02 -0.5823551E-04  0.0000000E+00  0.1509345E-02
  0.5707071E+00  0.0000000E+00  0.5050505E-02 -0.3043869E-04  0.0000000E+00  0.1404091E-02
  0.5808081E+00  0.0000000E+00  0.5050505E-02 -0.6706753E-04  0.0000000E+00  0.1290404E-02
  0.5909091E+00  0.0000000E+00  0.5050505E-02 -0.7257042E-04  0.0000000E+00  0.1130126E-02
  0.6010101E+00  0.0000000E+00  0.5050505E-02 -0.4657296E-04  0.0000000E+00  0.9952884E-03
  0.6111111E+00  0.0000000E+00  0.5050505E-02 -0.3478796E-04  0.0000000E+00  0.9042556E-03
  0.6212121E+00  0.0000000E+00  0.5050505E-02 -0.2832399E-04  0.0000000E+00  0.8342432E-03
  0.6313131E+00  0.0000000E+00  0.5050505E-02 -0.2411785E-04  0.0000000E+00  0.7764721E-03
  0.6414142E+00  0.0000000E+00  0.5050505E-02 -0.2107662E-04  0.0000000E+00  0.7269801E-03
  0.6515151E+00  0.0000000E+00  0.5050505E-02 -0.1877584E-04  0.0000000E+00  0.6835649E-03
  0.6616161E+00  0.0000000E+00  0.5050505E-02 -0.1700339E-04  0.0000000E+00  0.6447682E-03
  0.6717172E+00  0.0000000E+00  0.5050505E-02 -0.1561338E-04  0.0000000E+00  0.6095500E-03
  0.6818182E+00  0.0000000E+00  0.5050505E-02 -0.1448828E-04  0.0000000E+00  0.5771735E-03
  0.6919192E+00  0.0000000E+00  0.5050505E-02 -0.1353464E-04  0.0000000E+00  0.5471413E-03
  0.7020202E+00  0.0000000E+00  0.5050505E-02 -0.1268321E-04  0.0000000E+00  0.5191380E-03
  0.7121212E+00  0.0000000E+00  0.5050505E-02 -0.1188820E-04  0.0000000E+00  0.4929755E-03
  0.7222222E+00  0.0000000E+00  0.5050505E-02 -0.1112554E-04  0.0000000E+00  0.4685435E-03
  0.7323232E+00  0.0000000E+00  0.5050505E-02 -0.1038747E-04  0.0000000E+00  0.4457672E-03
  0.7424242E+00  0.0000000E+00  0.5050505E-02 -0.9675551E-05  0.0000000E+00  0.4245801E-03
  0.7525253E+00  0.0000000E+00  0.5050505E-02 -0.8994722E-05  0.0000000E+00  0.4049105E-03
  0.7626263E+00  0.0000000E+00  0.5050505E-02 -0.8349707E-05  0.0000000E+00  0.3866778E-03
  0.7727273E+00  0.0000000E+00  0.5050505E-02 -0.7743414E-05  0.0000000E+00  0.3697950E-03
  0.7828283E+00  0.0000000E+00  0.5050505E-02 -0.7176638E-05  0.0000000E+00  0.3541723E-03
  0.7929293E+00  0.0000000E+00  0.5050505E-02 -0.6648379E-05  0.0000000E+00  0.3397215E-03
  0.8030303E+00  0.0000000E+00  0.5050505E-02 -0.6156364E-05  0.0000000E+00  0.3263588E-03
  0.8131313E+00  0.0000000E+00  0.5050505E-02 -0.5697547E-05  0.0000000E+00  0.3140069E-03
  0.8232324E+00  0.0000000E+00  0.5050505E-02 -0.5268519E-05  0.0000000E+00  0.3025958E-03
  0.8333333E+00  0.0000000E+00  0.5050505E-02 -0.4865804E-05  0.0000000E+00  0.2920637E-03
  0.8434343E+00  0.0000000E+00  0.5050505E-02 -0.4486062E-05  0.0000000E+00  0.2823562E-03
  0.8535354E+00  0.0000000E+00  0.5050505E-02 -0.4126207E-05  0.0000000E+00  0.2734261E-03
  0.8636364E+00  0.0000000E+00  0.5050505E-02 -0.3783478E-05  0.0000000E+00  0.2652327E-03
  0.8737374E+00  0.0000000E+00  0.5050505E-02 -0.3455454E-05  0.0000000E+00  0.2577409E-03
  0.8838384E+00  0.0000000E+00  0.5050505E-02 -0.3140051E-05  0.0000000E+00  0.2509206E-03
  0.8939394E+00  0.0000000E+00  0.5050505E-02 -0.2835486E-05  0.0000000E+00  0.2447461E-03
  0.9040404E+00  0.0000000E+00  0.5050505E-02 -0.2540243E-05  0.0000000E+00  0.2391950E-03
  0.9141414E+00  0.0000000E+00  0.5050505E-02 -0.2253019E-05  0.0000000E+00  0.2342484E-03
  0.9242424E+00  0.0000000E+00  0.5050505E-02 -0.1972688E-05  0.0000000E+00  0.2298899E-03
  0.9343435E+00  0.0000000E+00  0.5050505E-02 -0.1698248E-05  0.0000000E+00  0.2261053E-03
  0.9444444E+00  0.0000000E+00  0.5050505E-02 -0.1428794E-05  0.0000000E+00  0.2228827E-03
  0.9545454E+00  0.0000000E+00  0.5050505E-02 -0.1163485E-05  0.0000000E+00  0.2202120E-03
  0.9646465E+00  0.0000000E+00  0.5050505E-02 -0.9015215E-06  0.0000000E+00  0.2180851E-03
  0.9747475E+00  0.0000000E+00  0.5050505E-02 -0.6421311E-06  0.0000000E+00  0.2164955E-03
  0.9848485E+00  0.0000000E+00  0.5050505E-02 -0.3845602E-06  0.0000000E+00  0.2154384E-03
  0.9974747E+00  0.0000000E+00  0.5050505E-02 -0.1280686E-06  0.0000000E+00  0.2149106E-03
  0.5050505E-02  0.0000000E+00  0.1515152E-01  0.4835549E-06  0.0000000E+00  0.1980080E-03
  0.1515152E-01  0.0000000E+00  0.1515152E-01  0.1453475E-05  0.0000000E+00  0.1986702E-03
  0.2525252E-01  0.0000000E+00  0.1515152E-01  0.2431911E-05  0.0000000E+00  0.1999987E-03
  0.3535353E-01  0.0000000E+00  0.1515152E-01  0.3424702E-05  0.0000000E+00  0.2020014E-03
  0.4545455E-01  0.0000000E+00  0.1515152E-01  0.4437869E-05  0.0000000E+00  0.2046905E-03
  0.5555556E-01  0.0000000E+00  0.1515152E-01  0.5477677E-05  0.0000000E+00  0.2080827E-03
  0.6565657E-01  0.0000000E+00  0.1515152E-01  0.6550718E-05  0.0000000E+00  0.2121990E-03
  0.7575758E-01  0.0000000E+00  0.1515152E-01  0.7664016E-05  0.0000000E+00  0.2170656E-03
  0.8585858E-01  0.0000000E+00  0.1515152E-01  0.8825166E-05  0.0000000E+00  0.2227136E-03
  0.9595960E-01  0.0000000E+00  0.1515152E-01  0.1004251E-04  0.0000000E+00  0.2291799E-03
  0.1060606E+00  0.0000000E+00  0.1515152E-01  0.1132538E-04  0.0000000E+00  0.2365077E-03
  0.1161616E+00  0.0000000E+00  0.1515152E-01  0.1268442E-04  0.0000000E+00  0.2447474E-03
  0.1262626E+00  0.0000000E+00  0.1515152E-01  0.1413201E-04  0.0000000E+00  0.2539573E-03
  0.1363636E+00  0.0000000E+00  0.1515152E-01  0.1568288E-04  0.0000000E+00  0.2642056E-03
  0.1464646E+00  0.0000000E+00  0.1515152E-01  0.1735495E-04  0.0000000E+00  0.2755718E-03
  0.1565657E+00  0.0000000E+00  0.1515152E-01  0.1917055E-04  0.0000000E+00  0.2881494E-03
  0.1666667E+00  0.0000000E+00  0.1515152E-01  0.2115824E-04  0.0000000E+00  0.3020495E-03
  0.1767677E+00  0.0000000E+00  0.1515152E-01  0.2335565E-04  0.0000000E+00  0.3174058E-03
  0.1868687E+00  0.0000000E+00  0.1515152E-01  0.2581414E-04  0.0000000E+00  0.3343813E-03
  0.1969697E+00  0.0000000E+00  0.1515152E-01  0.2860652E-04  0.0000000E+00  0.3531790E-03
  0.2070707E+00  0.0000000E+00  0.1515152E-01  0.3184106E-04  0.0000000E+00  0.3740577E-03
  0.2171717E+00  0.0000000E+00  0.1515152E-01  0.3568744E-04  0.0000000E+00  0.3973580E-03
  0.2272727E+00  0.0000000E+00  0.1515152E-01  0.4042840E-04  0.0000000E+00  0.4235484E-03
  0.2373737E+00  0.0000000E+00  0.1515152E-01  0.4656912E-04  0.0000000E+00  0.4533247E-03
  0.2474747E+00  0.0000000E+00  0.1515152E-01  0.5508850E-04  0.0000000E+00  0.4879052E-03
  0.2575758E+00  0.0000000E+00  0.1515152E-01  0.6807577E-04  0.0000000E+00  0.5302218E-03
  0.2676768E+00  0.0000000E+00  0.1515152E-01  0.9055586E-04  0.0000000E+00  0.5906909E-03
  0.2777778E+00  0.0000000E+00  0.1515152E-01  0.7880313E-04  0.0000000E+00  0.6554125E-03
  0.2878788E+00  0.0000000E+00  0.1515152E-01  0.7608258E-04  0.0000000E+00  0.7099729E-03
  0.2979798E+00  0.0000000E+00  0.1515152E-01  0.7761131E-04  0.0000000E+00  0.7635655E-03
  0.3080808E+00  0.0000000E+00  0.1515152E-01  0.8274612E-04  0.0000000E+00  0.8166525E-03
  0.3181818E+00  0.0000000E+00  0.1515152E-01  0.9339141E-04  0.0000000E+00  0.8600028E-03
  0.3282828E+00  0.0000000E+00  0.1515152E-01  0.1124861E-03  0.0000000E+00  0.9007706E-03
  0.3383838E+00  0.0000000E+00  0.1515152E-01  0.1433831E-03  0.0000000E+00  0.9701146E-03
  0.3484848E+00  0.0000000E+00  0.1515152E-01  0.1920026E-03  0.0000000E+00  0.1075408E-02
  0.3585859E+00  0.0000000E+00  0.1515152E-01  0.2824145E-03  0.0000000E+00  0.1208099E-02
  0.3686869E+00  0.0000000E+00  0.1515152E-01  0.4654517E-03  0.0000000E+00  0.1346856E-02
  0.3787879E+00  0.0000000E+00  0.1515152E-01  0.5923639E-03  0.0000000E+00  0.1431298E-02
  0.3888889E+00  0.0000000E+00  0.1515152E-01  0.3022705E-03  0.0000000E+00  0.1849159E-02
  0.3989899E+00  0.0000000E+00  0.1515152E-01 -0.2181109E-03  0.0000000E+00  0.2224028E-02
  0.4090909E+00  0.0000000E+00  0.1515152E-01 -0.3034200E-03  0.0000000E+00  0.2126864E-02
  0.4191919E+00  0.0000000E+00  0.1515152E-01 -0.1337329E-03  0.0000000E+00  0.2012627E-02
  0.4292929E+00  0.0000000E+00  0.1515152E-01 -0.9495518E-05  0.0000000E+00  0.1966750E-02
  0.4393939E+00  0.0000000E+00  0.1515152E-01 -0.1705050E-04  0.0000000E+00  0.1966651E-02
  0.4494950E+00  0.0000000E+00  0.1515152E-01  0.3750150E-04  0.0000000E+00  0.1965516E-02
  0.4595959E+00  0.0000000E+00  0.1515152E-01 -0.6907647E-04  0.0000000E+00  0.1924894E-02
  0.4696970E+00  0.0000000E+00  0.1515152E-01  0.1248750E-04  0.0000000E+00  0.1898736E-02
  0.4797980E+00  0.0000000E+00  0.1515152E-01  0.8395678E-04  0.0000000E+00  0.1960051E-02
  0.4898990E+00  0.0000000E+00  0.1515152E-01  0.1631593E-03  0.0000000E+00  0.2059327E-02
  0.5000000E+00  0.0000000E+00  0.1515152E-01  0.7838541E-04  0.0000000E+00  0.2114898E-02
  0.5101010E+00  0.0000000E+00  0.1515152E-01 -0.1561196E-03  0.0000000E+00  0.2082170E-02
  0.5202020E+00  0.0000000E+00  0.1515152E-01 -0.2453464E-03  0.0000000E+00  0.1929368E-02
  0.5303030E+00  0.0000000E+00  0.1515152E-01 -0.1639889E-03  0.0000000E+00  0.1747362E-02
  0.5404040E+00  0.0000000E+00  0.1515152E-01 -0.1021831E-03  0.0000000E+00  0.1613064E-02
  0.5505050E+00  0.0000000E+00  0.1515152E-01 -0.2171342E-03  0.0000000E+00  0.1502152E-02
  0.5606061E+00  0.0000000E+00  0.1515152E-01 -0.1450968E-03  0.0000000E+00  0.1419977E-02
  0.5707071E+00  0.0000000E+00  0.1515152E-01 -0.1234497E-03  0.0000000E+00  0.1311444E-02
  0.5808081E+00  0.0000000E+00  0.1515152E-01 -0.2072118E-03  0.0000000E+00  0.1154219E-02
  0.5909091E+00  0.0000000E+00  0.1515152E-01 -0.1778574E-03  0.0000000E+00  0.1033497E-02
  0.6010101E+00  0.0000000E+00  0.1515152E-01 -0.1269843E-03  0.0000000E+00  0.9581570E-03
  0.6111111E+00  0.0000000E+00  0.1515152E-01 -0.9947502E-04  0.0000000E+00  0.8866369E-03
  0.6212121E+00  0.0000000E+00  0.1515152E-01 -0.8282522E-04  0.0000000E+00  0.8241852E-03
  0.6313131E+00  0.0000000E+00  0.1515152E-01 -0.7120122E-04  0.0000000E+00  0.7698197E-03
  0.6414142E+00  0.0000000E+00  0.1515152E-01 -0.6247236E-04  0.0000000E+00  0.7222167E-03
  0.6515151E+00  0.0000000E+00  0.1515152E-01 -0.5577260E-04  0.0000000E+00  0.6800541E-03
  0.6616161E+00  0.0000000E+00  0.1515152E-01 -0.5059734E-04  0.0000000E+00  0.6421520E-03
  0.6717172E+00  0.0000000E+00  0.1515152E-01 -0.4654313E-04  0.0000000E+00  0.6075647E-03
  0.6818182E+00  0.0000000E+00  0.1515152E-01 -0.4326106E-04  0.0000000E+00  0.5756078E-03
  0.6919192E+00  0.0000000E+00  0.1515152E-01 -0.4047042E-04  0.0000000E+00  0.5458323E-03
  0.7020202E+00  0.0000000E+00  0.1515152E-01 -0.3796393E-04  0.0000000E+00  0.5179704E-03
  0.7121212E+00  0.0000000E+00  0.1515152E-01 -0.3560575E-04  0.0000000E+00  0.4918794E-03
  0.7222222E+00  0.0000000E+00  0.1515152E-01 -0.3332859E-04  0.0000000E+00  0.4674871E-03
  0.7323232E+00  0.0000000E+00  0.1515152E-01 -0.3111580E-04  0.0000000E+00  0.4447445E-03
  0.7424242E+00  0.0000000E+00  0.1515152E-01 -0.2897769E-04  0.0000000E+00  0.4235982E-03
  0.7525253E+00  0.0000000E+00  0.1515152E-01 -0.2693260E-04  0.0000000E+00  0.4039796E-03
  0.7626263E+00  0.0000000E+00  0.1515152E-01 -0.2499633E-04  0.0000000E+00  0.3858063E-03
  0.7727273E+00  0.0000000E+00  0.1515152E-01 -0.2317797E-04  0.0000000E+00  0.3689873E-03
  0.7828283E+00  0.0000000E+00  0.1515152E-01 -0.2147967E-04  0.0000000E+00  0.3534292E-03
  0.7929293E+00  0.0000000E+00  0.1515152E-01 -0.1989800E-04  0.0000000E+00  0.3390406E-03
  0.8030303E+00  0.0000000E+00  0.1515152E-01 -0.1842570E-04  0.0000000E+00  0.3257356E-03
  0.8131313E+00  0.0000000E+00  0.1515152E-01 -0.1705326E-04  0.0000000E+00  0.3134358E-03
  0.8232324E+00  0.0000000E+00  0.1515152E-01 -0.1577020E-04  0.0000000E+00  0.3020708E-03
  0.8333333E+00  0.0000000E+00  0.1515152E-01 -0.1456591E-04  0.0000000E+00  0.2915787E-03
  0.8434343E+00  0.0000000E+00  0.1515152E-01 -0.1343025E-04  0.0000000E+00  0.2819055E-03
  0.8535354E+00  0.0000000E+00  0.1515152E-01 -0.1235394E-04  0.0000000E+00  0.2730045E-03
  0.8636364E+00  0.0000000E+00  0.1515152E-01 -0.1132865E-04  0.0000000E+00  0.2648357E-03
  0.8737374E+00  0.0000000E+00  0.1515152E-01 -0.1034715E-04  0.0000000E+00  0.2573645E-03
  0.8838384E+00  0.0000000E+00  0.1515152E-01 -0.9403202E-05  0.0000000E+00  0.2505616E-03
  0.8939394E+00  0.0000000E+00  0.1515152E-01 -0.8491512E-05  0.0000000E+00  0.2444016E-03
  0.9040404E+00  0.0000000E+00  0.1515152E-01 -0.7607571E-05  0.0000000E+00  0.2388629E-03
  0.9141414E+00  0.0000000E+00  0.1515152E-01 -0.6747523E-05  0.0000000E+00  0.2339267E-03
  0.9242424E+00  0.0000000E+00  0.1515152E-01 -0.5908025E-05  0.0000000E+00  0.2295769E-03
  0.9343435E+00  0.0000000E+00  0.1515152E-01 -0.5086117E-05  0.0000000E+00  0.2257997E-03
  0.9444444E+00  0.0000000E+00  0.1515152E-01 -0.4279112E-05  0.0000000E+00  0.2225831E-03
  0.9545454E+00  0.0000000E+00  0.1515152E-01 -0.3484509E-05  0.0000000E+00  0.2199175E-03
  0.9646465E+00  0.0000000E+00  0.1515152E-01 -0.2699930E-05  0.0000000E+00  0.2177945E-03
  0.9747475E+00  0.0000000E+00  0.1515152E-01 -0.1923071E-05  0.0000000E+00  0.2162078E-03
  0.9848485E+00  0.0000000E+00  0.1515152E-01 -0.1151679E-05  0.0000000E+00  0.2151525E-03
  0.9974747E+00  0.0000000E+00  0.1515152E-01 -0.3835360E-06  0.0000000E+00  0.2146257E-03
  0.5050505E-02  0.0000000E+00  0.2525252E-01  0.8024084E-06  0.0000000E+00  0.1972801E-03
  0.1515152E-01  0.0000000E+00  0.2525252E-01  0.2411904E-05  0.0000000E+00  0.1979368E-03
  0.2525252E-01  0.0000000E+00  0.2525252E-01  0.4035545E-05  0.0000000E+00  0.1992539E-03
  0.3535353E-01  0.0000000E+00  0.2525252E-01  0.5683003E-05  0.0000000E+00  0.2012393E-03
  0.4545455E-01  0.0000000E+00  0.2525252E-01  0.7364230E-05  0.0000000E+00  0.2039050E-03
  0.5555556E-01  0.0000000E+00  0.2525252E-01  0.9089571E-05  0.0000000E+00  0.2072671E-03
  0.6565657E-01  0.0000000E+00  0.2525252E-01  0.1086989E-04  0.0000000E+00  0.2113463E-03
  0.7575758E-01  0.0000000E+00  0.2525252E-01  0.1271673E-04  0.0000000E+00  0.2161681E-03
  0.8585858E-01  0.0000000E+00  0.2525252E-01  0.1464256E-04  0.0000000E+00  0.2217627E-03
  0.9595960E-01  0.0000000E+00  0.2525252E-01  0.1666101E-04  0.0000000E+00  0.2281660E-03
  0.1060606E+00  0.0000000E+00  0.2525252E-01  0.1878728E-04  0.0000000E+00  0.2354197E-03
  0.1161616E+00  0.0000000E+00  0.2525252E-01  0.2103864E-04  0.0000000E+00  0.2435720E-03
  0.1262626E+00  0.0000000E+00  0.2525252E-01  0.2343507E-04  0.0000000E+00  0.2526787E-03
  0.1363636E+00  0.0000000E+00  0.2525252E-01  0.2600022E-04  0.0000000E+00  0.2628044E-03
  0.1464646E+00  0.0000000E+00  0.2525252E-01  0.2876263E-04  0.0000000E+00  0.2740235E-03
  0.1565657E+00  0.0000000E+00  0.2525252E-01  0.3175756E-04  0.0000000E+00  0.2864227E-03
  0.1666667E+00  0.0000000E+00  0.2525252E-01  0.3502958E-04  0.0000000E+00  0.3001033E-03
  0.1767677E+00  0.0000000E+00  0.2525252E-01  0.3863652E-04  0.0000000E+00  0.3151841E-03
  0.1868687E+00  0.0000000E+00  0.2525252E-01  0.4265561E-04  0.0000000E+00  0.3318059E-03
  0.1969697E+00  0.0000000E+00  0.2525252E-01  0.4719350E-04  0.0000000E+00  0.3501359E-03
  0.2070707E+00  0.0000000E+00  0.2525252E-01  0.5240304E-04  0.0000000E+00  0.3703725E-03
  0.2171717E+00  0.0000000E+00  0.2525252E-01  0.5851271E-04  0.0000000E+00  0.3927482E-03
  0.2272727E+00  0.0000000E+00  0.2525252E-01  0.6588045E-04  0.0000000E+00  0.4175175E-03
  0.2373737E+00  0.0000000E+00  0.2525252E-01  0.7509817E-04  0.0000000E+00  0.4448912E-03
  0.2474747E+00  0.0000000E+00  0.2525252E-01  0.8721503E-04  0.0000000E+00  0.4747413E-03
  0.2575758E+00  0.0000000E+00  0.2525252E-01  0.1042879E-03  0.0000000E+00  0.5052975E-03
  0.2676768E+00  0.0000000E+00  0.2525252E-01  0.1310234E-03  0.0000000E+00  0.5270566E-03
  0.2777778E+00  0.0000000E+00  0.2525252E-01  0.1229811E-03  0.0000000E+00  0.5535829E-03
  0.2878788E+00  0.0000000E+00  0.2525252E-01  0.1227678E-03  0.0000000E+00  0.5974490E-03
  0.2979798E+00  0.0000000E+00  0.2525252E-01  0.1256925E-03  0.0000000E+00  0.6471772E-03
  0.3080808E+00  0.0000000E+00  0.2525252E-01  0.1312643E-03  0.0000000E+00  0.7001733E-03
  0.3181818E+00  0.0000000E+00  0.2525252E-01  0.1401237E-03  0.0000000E+00  0.7621572E-03
  0.3282828E+00  0.0000000E+00  0.2525252E-01  0.1687717E-03  0.0000000E+00  0.8361305E-03
  0.3383838E+00  0.0000000E+00  0.2525252E-01  0.2204242E-03  0.0000000E+00  0.9163061E-03
  0.3484848E+00  0.0000000E+00  0.2525252E-01  0.2786217E-03  0.0000000E+00  0.9961071E-03
  0.3585859E+00  0.0000000E+00  0.2525252E-01  0.3775349E-03  0.0000000E+00  0.1071215E-02
  0.3686869E+00  0.0000000E+00  0.2525252E-01  0.5377577E-03  0.0000000E+00  0.1126770E-02
  0.3787879E+00  0.0000000E+00  0.2525252E-01  0.6179700E-03  0.0000000E+00  0.1161127E-02
  0.3888889E+00  0.0000000E+00  0.2525252E-01  0.6841134E-03  0.0000000E+00  0.1245910E-02
  0.3989899E+00  0.0000000E+00  0.2525252E-01 -0.7263305E-05  0.0000000E+00  0.1606579E-02
  0.4090909E+00  0.0000000E+00  0.2525252E-01 -0.3663367E-03  0.0000000E+00  0.1880344E-02
  0.4191919E+00  0.0000000E+00  0.2525252E-01 -0.1778902E-03  0.0000000E+00  0.1842754E-02
  0.4292929E+00  0.0000000E+00  0.2525252E-01 -0.2054392E-04  0.0000000E+00  0.1811854E-02
  0.4393939E+00  0.0000000E+00  0.2525252E-01 -0.7096567E-05  0.0000000E+00  0.1809602E-02
  0.4494950E+00  0.0000000E+00  0.2525252E-01  0.1166007E-04  0.0000000E+00  0.1790162E-02
  0.4595959E+00  0.0000000E+00  0.2525252E-01 -0.8886775E-04  0.0000000E+00  0.1769931E-02
  0.4696970E+00  0.0000000E+00  0.2525252E-01  0.2924386E-04  0.0000000E+00  0.1791072E-02
  0.4797980E+00  0.0000000E+00  0.2525252E-01  0.1393303E-03  0.0000000E+00  0.1827043E-02
  0.4898990E+00  0.0000000E+00  0.2525252E-01  0.2247879E-03  0.0000000E+00  0.1888251E-02
  0.5000000E+00  0.0000000E+00  0.2525252E-01  0.8067679E-04  0.0000000E+00  0.1924328E-02
  0.5101010E+00  0.0000000E+00  0.2525252E-01 -0.2479594E-03  0.0000000E+00  0.1838396E-02
  0.5202020E+00  0.0000000E+00  0.2525252E-01 -0.3729157E-03  0.0000000E+00  0.1701195E-02
  0.5303030E+00  0.0000000E+00  0.2525252E-01 -0.2563788E-03  0.0000000E+00  0.1599720E-02
  0.5404040E+00  0.0000000E+00  0.2525252E-01 -0.2090508E-03  0.0000000E+00  0.1483163E-02
  0.5505050E+00  0.0000000E+00  0.2525252E-01 -0.2708125E-03  0.0000000E+00  0.1394114E-02
  0.5606061E+00  0.0000000E+00  0.2525252E-01 -0.2147402E-03  0.0000000E+00  0.1324597E-02
  0.5707071E+00  0.0000000E+00  0.2525252E-01 -0.2853217E-03  0.0000000E+00  0.1160855E-02
  0.5808081E+00  0.0000000E+00  0.2525252E-01 -0.2992264E-03  0.0000000E+00  0.1024661E-02
  0.5909091E+00  0.0000000E+00  0.2525252E-01 -0.2343526E-03  0.0000000E+00  0.9751925E-03
  0.6010101E+00  0.0000000E+00  0.2525252E-01 -0.1864006E-03  0.0000000E+00  0.9189286E-03
  0.6111111E+00  0.0000000E+00  0.2525252E-01 -0.1542058E-03  0.0000000E+00  0.8620507E-03
  0.6212121E+00  0.0000000E+00  0.2525252E-01 -0.1325986E-03  0.0000000E+00  0.8078630E-03
  0.6313131E+00  0.0000000E+00  0.2525252E-01 -0.1154892E-03  0.0000000E+00  0.7579566E-03
  0.6414142E+00  0.0000000E+00  0.2525252E-01 -0.1018708E-03  0.0000000E+00  0.7133353E-03
  0.6515151E+00  0.0000000E+00  0.2525252E-01 -0.9124548E-04  0.0000000E+00  0.6734214E-03
  0.6616161E+00  0.0000000E+00  0.2525252E-01 -0.8305093E-04  0.0000000E+00  0.6372182E-03
  0.6717172E+00  0.0000000E+00  0.2525252E-01 -0.7666752E-04  0.0000000E+00  0.6038407E-03
  0.6818182E+00  0.0000000E+00  0.2525252E-01 -0.7150101E-04  0.0000000E+00  0.5726747E-03
  0.6919192E+00  0.0000000E+00  0.2525252E-01 -0.6707763E-04  0.0000000E+00  0.5433643E-03
  0.7020202E+00  0.0000000E+00  0.2525252E-01 -0.6305292E-04  0.0000000E+00  0.5157391E-03
  0.7121212E+00  0.0000000E+00  0.2525252E-01 -0.5920298E-04  0.0000000E+00  0.4897516E-03
  0.7222222E+00  0.0000000E+00  0.2525252E-01 -0.5543363E-04  0.0000000E+00  0.4654110E-03
  0.7323232E+00  0.0000000E+00  0.2525252E-01 -0.5174158E-04  0.0000000E+00  0.4427208E-03
  0.7424242E+00  0.0000000E+00  0.2525252E-01 -0.4816382E-04  0.0000000E+00  0.4216500E-03
  0.7525253E+00  0.0000000E+00  0.2525252E-01 -0.4474249E-04  0.0000000E+00  0.4021329E-03
  0.7626263E+00  0.0000000E+00  0.2525252E-01 -0.4150857E-04  0.0000000E+00  0.3840799E-03
  0.7727273E+00  0.0000000E+00  0.2525252E-01 -0.3847783E-04  0.0000000E+00  0.3673907E-03
  0.7828283E+00  0.0000000E+00  0.2525252E-01 -0.3565268E-04  0.0000000E+00  0.3519631E-03
  0.7929293E+00  0.0000000E+00  0.2525252E-01 -0.3302567E-04  0.0000000E+00  0.3376994E-03
  0.8030303E+00  0.0000000E+00  0.2525252E-01 -0.3058313E-04  0.0000000E+00  0.3245098E-03
  0.8131313E+00  0.0000000E+00  0.2525252E-01 -0.2830798E-04  0.0000000E+00  0.3123137E-03
  0.8232324E+00  0.0000000E+00  0.2525252E-01 -0.2618186E-04  0.0000000E+00  0.3010399E-03
  0.8333333E+00  0.0000000E+00  0.2525252E-01 -0.2418649E-04  0.0000000E+00  0.2906267E-03
  0.8434343E+00  0.0000000E+00  0.2525252E-01 -0.2230463E-04  0.0000000E+00  0.2810209E-03
  0.8535354E+00  0.0000000E+00  0.2525252E-01 -0.2052059E-04  0.0000000E+00  0.2721770E-03
  0.8636364E+00  0.0000000E+00  0.2525252E-01 -0.1882047E-04  0.0000000E+00  0.2640561E-03
  0.8737374E+00  0.0000000E+00  0.2525252E-01 -0.1719223E-04  0.0000000E+00  0.2566251E-03
  0.8838384E+00  0.0000000E+00  0.2525252E-01 -0.1562561E-04  0.0000000E+00  0.2498560E-03
  0.8939394E+00  0.0000000E+00  0.2525252E-01 -0.1411189E-04  0.0000000E+00  0.2437244E-03
  0.9040404E+00  0.0000000E+00  0.2525252E-01 -0.1264373E-04  0.0000000E+00  0.2382096E-03
  0.9141414E+00  0.0000000E+00  0.2525252E-01 -0.1121484E-04  0.0000000E+00  0.2332935E-03
  0.9242424E+00  0.0000000E+00  0.2525252E-01 -0.9819807E-05  0.0000000E+00  0.2289608E-03
  0.9343435E+00  0.0000000E+00  0.2525252E-01 -0.8453806E-05  0.0000000E+00  0.2251979E-03
  0.9444444E+00  0.0000000E+00  0.2525252E-01 -0.7112462E-05  0.0000000E+00  0.2219933E-03
  0.9545454E+00  0.0000000E+00  0.2525252E-01 -0.5791684E-05  0.0000000E+00  0.2193374E-03
  0.9646465E+00  0.0000000E+00  0.2525252E-01 -0.4487563E-05  0.0000000E+00  0.2172220E-03
  0.9747475E+00  0.0000000E+00  0.2525252E-01 -0.3196299E-05  0.0000000E+00  0.2156410E-03
  0.9848485E+00  0.0000000E+00  0.2525252E-01 -0.1914158E-05  0.0000000E+00  0.2145895E-03
  0.9974747E+00  0.0000000E+00  0.2525252E-01 -0.6374535E-06  0.0000000E+00  0.2140645E-03
  0.5050505E-02  0.0000000E+00  0.3535353E-01  0.1116869E-05  0.0000000E+00  0.1962077E-03
  0.1515152E-01  0.0000000E+00  0.3535353E-01  0.3357123E-05  0.0000000E+00  0.1968561E-03
  0.2525252E-01  0.0000000E+00  0.3535353E-01  0.5617052E-05  0.0000000E+00  0.1981565E-03
  0.3535353E-01  0.0000000E+00  0.3535353E-01  0.7910068E-05  0.0000000E+00  0.2001164E-03
  0.4545455E-01  0.0000000E+00  0.3535353E-01  0.1024995E-04  0.0000000E+00  0.2027475E-03
  0.5555556E-01  0.0000000E+00  0.3535353E-01  0.1265100E-04  0.0000000E+00  0.2060654E-03
  0.6565657E-01  0.0000000E+00  0.3535353E-01  0.1512817E-04  0.0000000E+00  0.2100902E-03
  0.7575758E-01  0.0000000E+00  0.3535353E-01  0.1769735E-04  0.0000000E+00  0.2148463E-03
  0.8585858E-01  0.0000000E+00  0.3535353E-01  0.2037555E-04  0.0000000E+00  0.2203629E-03
  0.9595960E-01  0.0000000E+00  0.3535353E-01  0.2318137E-04  0.0000000E+00  0.2266742E-03
  0.1060606E+00  0.0000000E+00  0.3535353E-01  0.2613538E-04  0.0000000E+00  0.2338199E-03
  0.1161616E+00  0.0000000E+00  0.3535353E-01  0.2926083E-04  0.0000000E+00  0.2418454E-03
  0.1262626E+00  0.0000000E+00  0.3535353E-01  0.3258444E-04  0.0000000E+00  0.2508029E-03
  0.1363636E+00  0.0000000E+00  0.3535353E-01  0.3613754E-04  0.0000000E+00  0.2607519E-03
  0.1464646E+00  0.0000000E+00  0.3535353E-01  0.3995762E-04  0.0000000E+00  0.2717603E-03
  0.1565657E+00  0.0000000E+00  0.3535353E-01  0.4409037E-04  0.0000000E+00  0.2839057E-03
  0.1666667E+00  0.0000000E+00  0.3535353E-01  0.4859266E-04  0.0000000E+00  0.2972765E-03
  0.1767677E+00  0.0000000E+00  0.3535353E-01  0.5353669E-04  0.0000000E+00  0.3119736E-03
  0.1868687E+00  0.0000000E+00  0.3535353E-01  0.5901619E-04  0.0000000E+00  0.3281110E-03
  0.1969697E+00  0.0000000E+00  0.3535353E-01  0.6515580E-04  0.0000000E+00  0.3458161E-03
  0.2070707E+00  0.0000000E+00  0.3535353E-01  0.7212542E-04  0.0000000E+00  0.3652257E-03
  0.2171717E+00  0.0000000E+00  0.3535353E-01  0.8016200E-04  0.0000000E+00  0.3864751E-03
  0.2272727E+00  0.0000000E+00  0.3535353E-01  0.8960099E-04  0.0000000E+00  0.4096693E-03
  0.2373737E+00  0.0000000E+00  0.3535353E-01  0.1009127E-03  0.0000000E+00  0.4348128E-03
  0.2474747E+00  0.0000000E+00  0.3535353E-01  0.1147029E-03  0.0000000E+00  0.4616599E-03
  0.2575758E+00  0.0000000E+00  0.3535353E-01  0.1314654E-03  0.0000000E+00  0.4894864E-03
  0.2676768E+00  0.0000000E+00  0.3535353E-01  0.1500778E-03  0.0000000E+00  0.5174681E-03
  0.2777778E+00  0.0000000E+00  0.3535353E-01  0.1602669E-03  0.0000000E+00  0.5516597E-03
  0.2878788E+00  0.0000000E+00  0.3535353E-01  0.1670012E-03  0.0000000E+00  0.5956307E-03
  0.2979798E+00  0.0000000E+00  0.3535353E-01  0.1717817E-03  0.0000000E+00  0.6438178E-03