title = "dataset feddes"
variables = "x", "y", "z", "vx", "vy", "vz"
zone t = "velocities, solution time =  3.000E+00 days        " i =   49, j =   49, k =    1,  f=point
  0.2040816E-01  0.0000000E+00  0.2040816E-01 -0.6302914E-10  0.0000000E+00  0.1377213E-01
  0.6122449E-01  0.0000000E+00  0.2040816E-01 -0.4041948E-10  0.0000000E+00  0.1377213E-01
  0.1020408E+00  0.0000000E+00  0.2040816E-01 -0.1011850E-10  0.0000000E+00  0.1377213E-01
  0.1428571E+00  0.0000000E+00  0.2040816E-01 -0.1257643E-11  0.0000000E+00  0.1377213E-01
  0.1836735E+00  0.0000000E+00  0.2040816E-01  0.9574047E-11  0.0000000E+00  0.1377213E-01
  0.2244898E+00  0.0000000E+00  0.2040816E-01  0.9106230E-11  0.0000000E+00  0.1377213E-01
  0.2653061E+00  0.0000000E+00  0.2040816E-01  0.2604936E-10  0.0000000E+00  0.1377213E-01
  0.3061225E+00  0.0000000E+00  0.2040816E-01  0.1092392E-10  0.0000000E+00  0.1377213E-01
  0.3469388E+00  0.0000000E+00  0.2040816E-01  0.2286046E-10  0.0000000E+00  0.1377213E-01
  0.3877551E+00  0.0000000E+00  0.2040816E-01  0.2001656E-10  0.0000000E+00  0.1377213E-01
  0.4285714E+00  0.0000000E+00  0.2040816E-01  0.1664758E-10  0.0000000E+00  0.1377213E-01
  0.4693878E+00  0.0000000E+00  0.2040816E-01  0.1409310E-10  0.0000000E+00  0.1377213E-01
  0.5102041E+00  0.0000000E+00  0.2040816E-01  0.1046627E-10  0.0000000E+00  0.1377213E-01
  0.5510204E+00  0.0000000E+00  0.2040816E-01 -0.5281906E-11  0.0000000E+00  0.1377213E-01
  0.5918368E+00  0.0000000E+00  0.2040816E-01 -0.2144163E-12  0.0000000E+00  0.1377213E-01
  0.6326531E+00  0.0000000E+00  0.2040816E-01 -0.1345057E-10  0.0000000E+00  0.1377213E-01
  0.6734694E+00  0.0000000E+00  0.2040816E-01 -0.1557701E-10  0.0000000E+00  0.1377213E-01
  0.7142857E+00  0.0000000E+00  0.2040816E-01 -0.1730727E-10  0.0000000E+00  0.1377213E-01
  0.7551020E+00  0.0000000E+00  0.2040816E-01 -0.1907622E-10  0.0000000E+00  0.1377213E-01
  0.7959183E+00  0.0000000E+00  0.2040816E-01 -0.1997228E-10  0.0000000E+00  0.1377213E-01
  0.8367347E+00  0.0000000E+00  0.2040816E-01 -0.1959607E-10  0.0000000E+00  0.1377213E-01
  0.8775510E+00  0.0000000E+00  0.2040816E-01 -0.7835468E-11  0.0000000E+00  0.1377213E-01
  0.9183673E+00  0.0000000E+00  0.2040816E-01 -0.1603079E-10  0.0000000E+00  0.1377213E-01
  0.9591837E+00  0.0000000E+00  0.2040816E-01 -0.1195257E-10  0.0000000E+00  0.1377213E-01
  0.1000000E+01  0.0000000E+00  0.2040816E-01 -0.8210170E-11  0.0000000E+00  0.1377213E-01
  0.1040816E+01  0.0000000E+00  0.2040816E-01 -0.1171380E-10  0.0000000E+00  0.1377213E-01
  0.1081633E+01  0.0000000E+00  0.2040816E-01 -0.5033698E-11  0.0000000E+00  0.1377213E-01
  0.1122449E+01  0.0000000E+00  0.2040816E-01 -0.1249865E-10  0.0000000E+00  0.1377213E-01
  0.1163265E+01  0.0000000E+00  0.2040816E-01 -0.1412051E-10  0.0000000E+00  0.1377213E-01
  0.1204082E+01  0.0000000E+00  0.2040816E-01 -0.1331334E-10  0.0000000E+00  0.1377213E-01
  0.1244898E+01  0.0000000E+00  0.2040816E-01 -0.1238565E-10  0.0000000E+00  0.1377213E-01
  0.1285714E+01  0.0000000E+00  0.2040816E-01 -0.2187632E-10  0.0000000E+00  0.1377213E-01
  0.1326531E+01  0.0000000E+00  0.2040816E-01 -0.1820748E-10  0.0000000E+00  0.1377213E-01
  0.1367347E+01  0.0000000E+00  0.2040816E-01 -0.1860260E-10  0.0000000E+00  0.1377213E-01
  0.1408163E+01  0.0000000E+00  0.2040816E-01 -0.1807483E-10  0.0000000E+00  0.1377213E-01
  0.1448980E+01  0.0000000E+00  0.2040816E-01 -0.1617947E-10  0.0000000E+00  0.1377213E-01
  0.1489796E+01  0.0000000E+00  0.2040816E-01 -0.1346509E-10  0.0000000E+00  0.1377213E-01
  0.1530612E+01  0.0000000E+00  0.2040816E-01 -0.1053240E-10  0.0000000E+00  0.1377213E-01
  0.1571429E+01  0.0000000E+00  0.2040816E-01 -0.4486573E-11  0.0000000E+00  0.1377213E-01
  0.1612245E+01  0.0000000E+00  0.2040816E-01  0.1041944E-10  0.0000000E+00  0.1377213E-01
  0.1653061E+01  0.0000000E+00  0.2040816E-01  0.3502178E-11  0.0000000E+00  0.1377213E-01
  0.1693878E+01  0.0000000E+00  0.2040816E-01  0.2059883E-10  0.0000000E+00  0.1377213E-01
  0.1734694E+01  0.0000000E+00  0.2040816E-01  0.1832127E-10  0.0000000E+00  0.1377213E-01
  0.1775510E+01  0.0000000E+00  0.2040816E-01  0.1725969E-10  0.0000000E+00  0.1377213E-01
  0.1816326E+01  0.0000000E+00  0.2040816E-01  0.1810699E-10  0.0000000E+00  0.1377213E-01
  0.1857143E+01  0.0000000E+00  0.2040816E-01  0.3039632E-11  0.0000000E+00  0.1377213E-01
  0.1897959E+01  0.0000000E+00  0.2040816E-01  0.8852298E-11  0.0000000E+00  0.1377213E-01
  0.1938776E+01  0.0000000E+00  0.2040816E-01 -0.2428811E-10  0.0000000E+00  0.1377213E-01
  0.1989796E+01  0.0000000E+00  0.2040816E-01 -0.7555291E-10  0.0000000E+00  0.1377213E-01
  0.2040816E-01  0.0000000E+00  0.6122449E-01 -0.1699807E-09  0.0000000E+00  0.1376941E-01
  0.6122449E-01  0.0000000E+00  0.6122449E-01 -0.1107671E-09  0.0000000E+00  0.1376941E-01
  0.1020408E+00  0.0000000E+00  0.6122449E-01 -0.2656323E-10  0.0000000E+00  0.1376941E-01
  0.1428571E+00  0.0000000E+00  0.6122449E-01  0.1113916E-10  0.0000000E+00  0.1376941E-01
  0.1836735E+00  0.0000000E+00  0.6122449E-01  0.2925558E-10  0.0000000E+00  0.1376941E-01
  0.2244898E+00  0.0000000E+00  0.6122449E-01  0.2635917E-10  0.0000000E+00  0.1376941E-01
  0.2653061E+00  0.0000000E+00  0.6122449E-01  0.8398150E-10  0.0000000E+00  0.1376941E-01
  0.3061225E+00  0.0000000E+00  0.6122449E-01  0.4539887E-10  0.0000000E+00  0.1376941E-01
  0.3469388E+00  0.0000000E+00  0.6122449E-01  0.7297920E-10  0.0000000E+00  0.1376941E-01
  0.3877551E+00  0.0000000E+00  0.6122449E-01  0.6576031E-10  0.0000000E+00  0.1376941E-01
  0.4285714E+00  0.0000000E+00  0.6122449E-01  0.5526925E-10  0.0000000E+00  0.1376941E-01
  0.4693878E+00  0.0000000E+00  0.6122449E-01  0.4628462E-10  0.0000000E+00  0.1376941E-01
  0.5102041E+00  0.0000000E+00  0.6122449E-01  0.3643084E-10  0.0000000E+00  0.1376942E-01
  0.5510204E+00  0.0000000E+00  0.6122449E-01 -0.1863723E-10  0.0000000E+00  0.1376942E-01
  0.5918368E+00  0.0000000E+00  0.6122449E-01 -0.7046143E-11  0.0000000E+00  0.1376942E-01
  0.6326531E+00  0.0000000E+00  0.6122449E-01 -0.3974060E-10  0.0000000E+00  0.1376941E-01
  0.6734694E+00  0.0000000E+00  0.6122449E-01 -0.4984259E-10  0.0000000E+00  0.1376941E-01
  0.7142857E+00  0.0000000E+00  0.6122449E-01 -0.5718350E-10  0.0000000E+00  0.1376941E-01
  0.7551020E+00  0.0000000E+00  0.6122449E-01 -0.6258094E-10  0.0000000E+00  0.1376941E-01
  0.7959183E+00  0.0000000E+00  0.6122449E-01 -0.6508265E-10  0.0000000E+00  0.1376941E-01
  0.8367347E+00  0.0000000E+00  0.6122449E-01 -0.6600353E-10  0.0000000E+00  0.1376941E-01
  0.8775510E+00  0.0000000E+00  0.6122449E-01 -0.3062125E-10  0.0000000E+00  0.1376941E-01
  0.9183673E+00  0.0000000E+00  0.6122449E-01 -0.3871672E-10  0.0000000E+00  0.1376941E-01
  0.9591837E+00  0.0000000E+00  0.6122449E-01 -0.4967535E-10  0.0000000E+00  0.1376941E-01
  0.1000000E+01  0.0000000E+00  0.6122449E-01 -0.2699339E-10  0.0000000E+00  0.1376941E-01
  0.1040816E+01  0.0000000E+00  0.6122449E-01 -0.3219382E-10  0.0000000E+00  0.1376941E-01
  0.1081633E+01  0.0000000E+00  0.6122449E-01 -0.2309531E-10  0.0000000E+00  0.1376941E-01
  0.1122449E+01  0.0000000E+00  0.6122449E-01 -0.3626249E-10  0.0000000E+00  0.1376941E-01
  0.1163265E+01  0.0000000E+00  0.6122449E-01 -0.4000155E-10  0.0000000E+00  0.1376941E-01
  0.1204082E+01  0.0000000E+00  0.6122449E-01 -0.5581460E-10  0.0000000E+00  0.1376941E-01
  0.1244898E+01  0.0000000E+00  0.6122449E-01 -0.3758449E-10  0.0000000E+00  0.1376941E-01
  0.1285714E+01  0.0000000E+00  0.6122449E-01 -0.6772517E-10  0.0000000E+00  0.1376941E-01
  0.1326531E+01  0.0000000E+00  0.6122449E-01 -0.6281216E-10  0.0000000E+00  0.1376941E-01
  0.1367347E+01  0.0000000E+00  0.6122449E-01 -0.6221377E-10  0.0000000E+00  0.1376941E-01
  0.1408163E+01  0.0000000E+00  0.6122449E-01 -0.5928802E-10  0.0000000E+00  0.1376941E-01
  0.1448980E+01  0.0000000E+00  0.6122449E-01 -0.5243857E-10  0.0000000E+00  0.1376941E-01
  0.1489796E+01  0.0000000E+00  0.6122449E-01 -0.4262829E-10  0.0000000E+00  0.1376941E-01
  0.1530612E+01  0.0000000E+00  0.6122449E-01 -0.3396256E-10  0.0000000E+00  0.1376941E-01
  0.1571429E+01  0.0000000E+00  0.6122449E-01 -0.1761473E-10  0.0000000E+00  0.1376941E-01
  0.1612245E+01  0.0000000E+00  0.6122449E-01  0.3798769E-10  0.0000000E+00  0.1376941E-01
  0.1653061E+01  0.0000000E+00  0.6122449E-01  0.1574620E-10  0.0000000E+00  0.1376941E-01
  0.1693878E+01  0.0000000E+00  0.6122449E-01  0.6336444E-10  0.0000000E+00  0.1376941E-01
  0.1734694E+01  0.0000000E+00  0.6122449E-01  0.6102927E-10  0.0000000E+00  0.1376941E-01
  0.1775510E+01  0.0000000E+00  0.6122449E-01  0.5890801E-10  0.0000000E+00  0.1376941E-01
  0.1816326E+01  0.0000000E+00  0.6122449E-01  0.6472392E-10  0.0000000E+00  0.1376941E-01
  0.1857143E+01  0.0000000E+00  0.6122449E-01  0.1729570E-10  0.0000000E+00  0.1376941E-01
  0.1897959E+01  0.0000000E+00  0.6122449E-01  0.2353883E-10  0.0000000E+00  0.1376941E-01
  0.1938776E+01  0.0000000E+00  0.6122449E-01 -0.5762340E-10  0.0000000E+00  0.1376941E-01
  0.1989796E+01  0.0000000E+00  0.6122449E-01 -0.1908044E-09  0.0000000E+00  0.1376941E-01
  0.2040816E-01  0.0000000E+00  0.1020408E+00 -0.2182815E-09  0.0000000E+00  0.1375846E-01
  0.6122449E-01  0.0000000E+00  0.1020408E+00 -0.1444734E-09  0.0000000E+00  0.1375846E-01
  0.1020408E+00  0.0000000E+00  0.1020408E+00 -0.2899748E-10  0.0000000E+00  0.1375846E-01
  0.1428571E+00  0.0000000E+00  0.1020408E+00  0.5138500E-10  0.0000000E+00  0.1375846E-01
  0.1836735E+00  0.0000000E+00  0.1020408E+00  0.5263550E-10  0.0000000E+00  0.1375846E-01
  0.2244898E+00  0.0000000E+00  0.1020408E+00  0.4567004E-10  0.0000000E+00  0.1375846E-01
  0.2653061E+00  0.0000000E+00  0.1020408E+00  0.1414226E-09  0.0000000E+00  0.1375846E-01
  0.3061225E+00  0.0000000E+00  0.1020408E+00  0.9584028E-10  0.0000000E+00  0.1375846E-01
  0.3469388E+00  0.0000000E+00  0.1020408E+00  0.1220131E-09  0.0000000E+00  0.1375846E-01
  0.3877551E+00  0.0000000E+00  0.1020408E+00  0.1126089E-09  0.0000000E+00  0.1375846E-01
  0.4285714E+00  0.0000000E+00  0.1020408E+00  0.9520582E-10  0.0000000E+00  0.1375846E-01
  0.4693878E+00  0.0000000E+00  0.1020408E+00  0.7672017E-10  0.0000000E+00  0.1375846E-01
  0.5102041E+00  0.0000000E+00  0.1020408E+00  0.6665413E-10  0.0000000E+00  0.1375846E-01
  0.5510204E+00  0.0000000E+00  0.1020408E+00 -0.2927763E-10  0.0000000E+00  0.1375846E-01
  0.5918368E+00  0.0000000E+00  0.1020408E+00 -0.2661874E-10  0.0000000E+00  0.1375846E-01
  0.6326531E+00  0.0000000E+00  0.1020408E+00 -0.6213794E-10  0.0000000E+00  0.1375846E-01
  0.6734694E+00  0.0000000E+00  0.1020408E+00 -0.8238732E-10  0.0000000E+00  0.1375846E-01
  0.7142857E+00  0.0000000E+00  0.1020408E+00 -0.9769056E-10  0.0000000E+00  0.1375846E-01
  0.7551020E+00  0.0000000E+00  0.1020408E+00 -0.1057051E-09  0.0000000E+00  0.1375846E-01
  0.7959183E+00  0.0000000E+00  0.1020408E+00 -0.1064244E-09  0.0000000E+00  0.1375846E-01
  0.8367347E+00  0.0000000E+00  0.1020408E+00 -0.1115906E-09  0.0000000E+00  0.1375846E-01
  0.8775510E+00  0.0000000E+00  0.1020408E+00 -0.6500895E-10  0.0000000E+00  0.1375846E-01
  0.9183673E+00  0.0000000E+00  0.1020408E+00 -0.5322119E-10  0.0000000E+00  0.1375846E-01
  0.9591837E+00  0.0000000E+00  0.1020408E+00 -0.8325778E-10  0.0000000E+00  0.1375846E-01
  0.1000000E+01  0.0000000E+00  0.1020408E+00 -0.5439631E-10  0.0000000E+00  0.1375846E-01
  0.1040816E+01  0.0000000E+00  0.1020408E+00 -0.4742606E-10  0.0000000E+00  0.1375846E-01
  0.1081633E+01  0.0000000E+00  0.1020408E+00 -0.4514111E-10  0.0000000E+00  0.1375846E-01
  0.1122449E+01  0.0000000E+00  0.1020408E+00 -0.6285214E-10  0.0000000E+00  0.1375846E-01
  0.1163265E+01  0.0000000E+00  0.1020408E+00 -0.6406596E-10  0.0000000E+00  0.1375846E-01
  0.1204082E+01  0.0000000E+00  0.1020408E+00 -0.9782847E-10  0.0000000E+00  0.1375846E-01
  0.1244898E+01  0.0000000E+00  0.1020408E+00 -0.7438625E-10  0.0000000E+00  0.1375846E-01
  0.1285714E+01  0.0000000E+00  0.1020408E+00 -0.1057124E-09  0.0000000E+00  0.1375846E-01
  0.1326531E+01  0.0000000E+00  0.1020408E+00 -0.1084217E-09  0.0000000E+00  0.1375846E-01
  0.1367347E+01  0.0000000E+00  0.1020408E+00 -0.1074025E-09  0.0000000E+00  0.1375846E-01
  0.1408163E+01  0.0000000E+00  0.1020408E+00 -0.1015373E-09  0.0000000E+00  0.1375846E-01
  0.1448980E+01  0.0000000E+00  0.1020408E+00 -0.8895472E-10  0.0000000E+00  0.1375846E-01
  0.1489796E+01  0.0000000E+00  0.1020408E+00 -0.6938975E-10  0.0000000E+00  0.1375846E-01
  0.1530612E+01  0.0000000E+00  0.1020408E+00 -0.5249866E-10  0.0000000E+00  0.1375846E-01
  0.1571429E+01  0.0000000E+00  0.1020408E+00 -0.3507770E-10  0.0000000E+00  0.1375846E-01
  0.1612245E+01  0.0000000E+00  0.1020408E+00  0.6938162E-10  0.0000000E+00  0.1375846E-01
  0.1653061E+01  0.0000000E+00  0.1020408E+00  0.3571797E-10  0.0000000E+00  0.1375846E-01
  0.1693878E+01  0.0000000E+00  0.1020408E+00  0.1029888E-09  0.0000000E+00  0.1375846E-01
  0.1734694E+01  0.0000000E+00  0.1020408E+00  0.1074606E-09  0.0000000E+00  0.1375846E-01
  0.1775510E+01  0.0000000E+00  0.1020408E+00  0.1039861E-09  0.0000000E+00  0.1375846E-01
  0.1816326E+01  0.0000000E+00  0.1020408E+00  0.1208263E-09  0.0000000E+00  0.1375846E-01
  0.1857143E+01  0.0000000E+00  0.1020408E+00  0.5712599E-10  0.0000000E+00  0.1375846E-01
  0.1897959E+01  0.0000000E+00  0.1020408E+00  0.3396291E-10  0.0000000E+00  0.1375846E-01
  0.1938776E+01  0.0000000E+00  0.1020408E+00 -0.5223297E-10  0.0000000E+00  0.1375846E-01
  0.1989796E+01  0.0000000E+00  0.1020408E+00 -0.2099378E-09  0.0000000E+00  0.1375846E-01
  0.2040816E-01  0.0000000E+00  0.1428571E+00 -0.2018447E-09  0.0000000E+00  0.1373445E-01
  0.6122449E-01  0.0000000E+00  0.1428571E+00 -0.1277138E-09  0.0000000E+00  0.1373445E-01
  0.1020408E+00  0.0000000E+00  0.1428571E+00 -0.2118702E-10  0.0000000E+00  0.1373445E-01
  0.1428571E+00  0.0000000E+00  0.1428571E+00  0.9379192E-10  0.0000000E+00  0.1373445E-01
  0.1836735E+00  0.0000000E+00  0.1428571E+00  0.9066655E-10  0.0000000E+00  0.1373445E-01
  0.2244898E+00  0.0000000E+00  0.1428571E+00  0.7326030E-10  0.0000000E+00  0.1373445E-01
  0.2653061E+00  0.0000000E+00  0.1428571E+00  0.1856442E-09  0.0000000E+00  0.1373445E-01
  0.3061225E+00  0.0000000E+00  0.1428571E+00  0.1512544E-09  0.0000000E+00  0.1373445E-01
  0.3469388E+00  0.0000000E+00  0.1428571E+00  0.1625097E-09  0.0000000E+00  0.1373445E-01
  0.3877551E+00  0.0000000E+00  0.1428571E+00  0.1509413E-09  0.0000000E+00  0.1373445E-01
  0.4285714E+00  0.0000000E+00  0.1428571E+00  0.1278021E-09  0.0000000E+00  0.1373445E-01
  0.4693878E+00  0.0000000E+00  0.1428571E+00  0.9512260E-10  0.0000000E+00  0.1373445E-01
  0.5102041E+00  0.0000000E+00  0.1428571E+00  0.8844648E-10  0.0000000E+00  0.1373445E-01
  0.5510204E+00  0.0000000E+00  0.1428571E+00 -0.2370242E-10  0.0000000E+00  0.1373445E-01
  0.5918368E+00  0.0000000E+00  0.1428571E+00 -0.5349493E-10  0.0000000E+00  0.1373445E-01
  0.6326531E+00  0.0000000E+00  0.1428571E+00 -0.8111631E-10  0.0000000E+00  0.1373445E-01
  0.6734694E+00  0.0000000E+00  0.1428571E+00 -0.1065720E-09  0.0000000E+00  0.1373445E-01
  0.7142857E+00  0.0000000E+00  0.1428571E+00 -0.1290077E-09  0.0000000E+00  0.1373445E-01
  0.7551020E+00  0.0000000E+00  0.1428571E+00 -0.1392997E-09  0.0000000E+00  0.1373445E-01
  0.7959183E+00  0.0000000E+00  0.1428571E+00 -0.1339133E-09  0.0000000E+00  0.1373445E-01
  0.8367347E+00  0.0000000E+00  0.1428571E+00 -0.1358316E-09  0.0000000E+00  0.1373445E-01
  0.8775510E+00  0.0000000E+00  0.1428571E+00 -0.1026109E-09  0.0000000E+00  0.1373445E-01
  0.9183673E+00  0.0000000E+00  0.1428571E+00 -0.7594370E-10  0.0000000E+00  0.1373445E-01
  0.9591837E+00  0.0000000E+00  0.1428571E+00 -0.9104021E-10  0.0000000E+00  0.1373445E-01
  0.1000000E+01  0.0000000E+00  0.1428571E+00 -0.7486491E-10  0.0000000E+00  0.1373445E-01
  0.1040816E+01  0.0000000E+00  0.1428571E+00 -0.6312770E-10  0.0000000E+00  0.1373445E-01
  0.1081633E+01  0.0000000E+00  0.1428571E+00 -0.6509322E-10  0.0000000E+00  0.1373445E-01
  0.1122449E+01  0.0000000E+00  0.1428571E+00 -0.8542728E-10  0.0000000E+00  0.1373445E-01
  0.1163265E+01  0.0000000E+00  0.1428571E+00 -0.8578417E-10  0.0000000E+00  0.1373445E-01
  0.1204082E+01  0.0000000E+00  0.1428571E+00 -0.1188139E-09  0.0000000E+00  0.1373445E-01
  0.1244898E+01  0.0000000E+00  0.1428571E+00 -0.1157724E-09  0.0000000E+00  0.1373445E-01
  0.1285714E+01  0.0000000E+00  0.1428571E+00 -0.1336512E-09  0.0000000E+00  0.1373445E-01
  0.1326531E+01  0.0000000E+00  0.1428571E+00 -0.1421978E-09  0.0000000E+00  0.1373445E-01
  0.1367347E+01  0.0000000E+00  0.1428571E+00 -0.1425045E-09  0.0000000E+00  0.1373445E-01
  0.1408163E+01  0.0000000E+00  0.1428571E+00 -0.1348697E-09  0.0000000E+00  0.1373445E-01
  0.1448980E+01  0.0000000E+00  0.1428571E+00 -0.1180179E-09  0.0000000E+00  0.1373445E-01
  0.1489796E+01  0.0000000E+00  0.1428571E+00 -0.8918481E-10  0.0000000E+00  0.1373445E-01
  0.1530612E+01  0.0000000E+00  0.1428571E+00 -0.5836458E-10  0.0000000E+00  0.1373445E-01
  0.1571429E+01  0.0000000E+00  0.1428571E+00 -0.4795568E-10  0.0000000E+00  0.1373445E-01
  0.1612245E+01  0.0000000E+00  0.1428571E+00  0.9357301E-10  0.0000000E+00  0.1373445E-01
  0.1653061E+01  0.0000000E+00  0.1428571E+00  0.5802197E-10  0.0000000E+00  0.1373445E-01
  0.1693878E+01  0.0000000E+00  0.1428571E+00  0.1351622E-09  0.0000000E+00  0.1373445E-01
  0.1734694E+01  0.0000000E+00  0.1428571E+00  0.1519349E-09  0.0000000E+00  0.1373445E-01
  0.1775510E+01  0.0000000E+00  0.1428571E+00  0.1446021E-09  0.0000000E+00  0.1373445E-01
  0.1816326E+01  0.0000000E+00  0.1428571E+00  0.1654845E-09  0.0000000E+00  0.1373445E-01
  0.1857143E+01  0.0000000E+00  0.1428571E+00  0.1220312E-09  0.0000000E+00  0.1373445E-01
  0.1897959E+01  0.0000000E+00  0.1428571E+00  0.6015043E-10  0.0000000E+00  0.1373445E-01
  0.1938776E+01  0.0000000E+00  0.1428571E+00 -0.1645913E-10  0.0000000E+00  0.1373445E-01
  0.1989796E+01  0.0000000E+00  0.1428571E+00 -0.1559206E-09  0.0000000E+00  0.1373445E-01
  0.2040816E-01  0.0000000E+00  0.1836735E+00 -0.1512703E-09  0.0000000E+00  0.1369241E-01
  0.6122449E-01  0.0000000E+00  0.1836735E+00 -0.6781002E-10  0.0000000E+00  0.1369241E-01
  0.1020408E+00  0.0000000E+00  0.1836735E+00  0.1596805E-11  0.0000000E+00  0.1369241E-01
  0.1428571E+00  0.0000000E+00  0.1836735E+00  0.1126962E-09  0.0000000E+00  0.1369241E-01
  0.1836735E+00  0.0000000E+00  0.1836735E+00  0.1410922E-09  0.0000000E+00  0.1369241E-01
  0.2244898E+00  0.0000000E+00  0.1836735E+00  0.1120370E-09  0.0000000E+00  0.1369241E-01
  0.2653061E+00  0.0000000E+00  0.1836735E+00  0.2122899E-09  0.0000000E+00  0.1369241E-01
  0.3061225E+00  0.0000000E+00  0.1836735E+00  0.2061749E-09  0.0000000E+00  0.1369241E-01
  0.3469388E+00  0.0000000E+00  0.1836735E+00  0.1987125E-09  0.0000000E+00  0.1369241E-01
  0.3877551E+00  0.0000000E+00  0.1836735E+00  0.1824708E-09  0.0000000E+00  0.1369241E-01
  0.4285714E+00  0.0000000E+00  0.1836735E+00  0.1552602E-09  0.0000000E+00  0.1369241E-01
  0.4693878E+00  0.0000000E+00  0.1836735E+00  0.1048902E-09  0.0000000E+00  0.1369241E-01
  0.5102041E+00  0.0000000E+00  0.1836735E+00  0.8766623E-10  0.0000000E+00  0.1369241E-01
  0.5510204E+00  0.0000000E+00  0.1836735E+00 -0.5885273E-12  0.0000000E+00  0.1369241E-01
  0.5918368E+00  0.0000000E+00  0.1836735E+00 -0.7338949E-10  0.0000000E+00  0.1369241E-01
  0.6326531E+00  0.0000000E+00  0.1836735E+00 -0.9842900E-10  0.0000000E+00  0.1369241E-01
  0.6734694E+00  0.0000000E+00  0.1836735E+00 -0.1245924E-09  0.0000000E+00  0.1369241E-01
  0.7142857E+00  0.0000000E+00  0.1836735E+00 -0.1506540E-09  0.0000000E+00  0.1369241E-01
  0.7551020E+00  0.0000000E+00  0.1836735E+00 -0.1637089E-09  0.0000000E+00  0.1369241E-01
  0.7959183E+00  0.0000000E+00  0.1836735E+00 -0.1548795E-09  0.0000000E+00  0.1369241E-01
  0.8367347E+00  0.0000000E+00  0.1836735E+00 -0.1463919E-09  0.0000000E+00  0.1369241E-01
  0.8775510E+00  0.0000000E+00  0.1836735E+00 -0.1277005E-09  0.0000000E+00  0.1369241E-01
  0.9183673E+00  0.0000000E+00  0.1836735E+00 -0.9940894E-10  0.0000000E+00  0.1369241E-01
  0.9591837E+00  0.0000000E+00  0.1836735E+00 -0.9348498E-10  0.0000000E+00  0.1369241E-01
  0.1000000E+01  0.0000000E+00  0.1836735E+00 -0.8181450E-10  0.0000000E+00  0.1369241E-01
  0.1040816E+01  0.0000000E+00  0.1836735E+00 -0.7673622E-10  0.0000000E+00  0.1369241E-01
  0.1081633E+01  0.0000000E+00  0.1836735E+00 -0.8082126E-10  0.0000000E+00  0.1369241E-01
  0.1122449E+01  0.0000000E+00  0.1836735E+00 -0.9710492E-10  0.0000000E+00  0.1369241E-01
  0.1163265E+01  0.0000000E+00  0.1836735E+00 -0.1030505E-09  0.0000000E+00  0.1369241E-01
  0.1204082E+01  0.0000000E+00  0.1836735E+00 -0.1322180E-09  0.0000000E+00  0.1369241E-01
  0.1244898E+01  0.0000000E+00  0.1836735E+00 -0.1435433E-09  0.0000000E+00  0.1369241E-01
  0.1285714E+01  0.0000000E+00  0.1836735E+00 -0.1580285E-09  0.0000000E+00  0.1369241E-01
  0.1326531E+01  0.0000000E+00  0.1836735E+00 -0.1671746E-09  0.0000000E+00  0.1369241E-01
  0.1367347E+01  0.0000000E+00  0.1836735E+00 -0.1675805E-09  0.0000000E+00  0.1369241E-01
  0.1408163E+01  0.0000000E+00  0.1836735E+00 -0.1583889E-09  0.0000000E+00  0.1369241E-01
  0.1448980E+01  0.0000000E+00  0.1836735E+00 -0.1388246E-09  0.0000000E+00  0.1369241E-01
  0.1489796E+01  0.0000000E+00  0.1836735E+00 -0.1039735E-09  0.0000000E+00  0.1369241E-01
  0.1530612E+01  0.0000000E+00  0.1836735E+00 -0.5683984E-10  0.0000000E+00  0.1369241E-01
  0.1571429E+01  0.0000000E+00  0.1836735E+00 -0.5190676E-10  0.0000000E+00  0.1369241E-01
  0.1612245E+01  0.0000000E+00  0.1836735E+00  0.1114327E-09  0.0000000E+00  0.1369241E-01
  0.1653061E+01  0.0000000E+00  0.1836735E+00  0.7935931E-10  0.0000000E+00  0.1369241E-01
  0.1693878E+01  0.0000000E+00  0.1836735E+00  0.1591174E-09  0.0000000E+00  0.1369241E-01
  0.1734694E+01  0.0000000E+00  0.1836735E+00  0.1957124E-09  0.0000000E+00  0.1369241E-01
  0.1775510E+01  0.0000000E+00  0.1836735E+00  0.1874213E-09  0.0000000E+00  0.1369241E-01
  0.1816326E+01  0.0000000E+00  0.1836735E+00  0.1978913E-09  0.0000000E+00  0.1369241E-01
  0.1857143E+01  0.0000000E+00  0.1836735E+00  0.1769469E-09  0.0000000E+00  0.1369241E-01
  0.1897959E+01  0.0000000E+00  0.1836735E+00  0.1188758E-09  0.0000000E+00  0.1369241E-01
  0.1938776E+01  0.0000000E+00  0.1836735E+00  0.3645979E-10  0.0000000E+00  0.1369241E-01
  0.1989796E+01  0.0000000E+00  0.1836735E+00 -0.8899109E-10  0.0000000E+00  0.1369241E-01
  0.2040816E-01  0.0000000E+00  0.2244898E+00 -0.9754907E-10  0.0000000E+00  0.1362697E-01
  0.6122449E-01  0.0000000E+00  0.2244898E+00  0.6755290E-11  0.0000000E+00  0.1362697E-01
  0.1020408E+00  0.0000000E+00  0.2244898E+00  0.4640152E-10  0.0000000E+00  0.1362697E-01
  0.1428571E+00  0.0000000E+00  0.2244898E+00  0.1260177E-09  0.0000000E+00  0.1362697E-01
  0.1836735E+00  0.0000000E+00  0.2244898E+00  0.1857908E-09  0.0000000E+00  0.1362697E-01
  0.2244898E+00  0.0000000E+00  0.2244898E+00  0.1655678E-09  0.0000000E+00  0.1362697E-01
  0.2653061E+00  0.0000000E+00  0.2244898E+00  0.2182655E-09  0.0000000E+00  0.1362697E-01
  0.3061225E+00  0.0000000E+00  0.2244898E+00  0.2466680E-09  0.0000000E+00  0.1362697E-01
  0.3469388E+00  0.0000000E+00  0.2244898E+00  0.2302558E-09  0.0000000E+00  0.1362697E-01
  0.3877551E+00  0.0000000E+00  0.2244898E+00  0.2085281E-09  0.0000000E+00  0.1362697E-01
  0.4285714E+00  0.0000000E+00  0.2244898E+00  0.1800955E-09  0.0000000E+00  0.1362697E-01
  0.4693878E+00  0.0000000E+00  0.2244898E+00  0.1196031E-09  0.0000000E+00  0.1362697E-01
  0.5102041E+00  0.0000000E+00  0.2244898E+00  0.5824735E-10  0.0000000E+00  0.1362697E-01
  0.5510204E+00  0.0000000E+00  0.2244898E+00  0.2326256E-10  0.0000000E+00  0.1362697E-01
  0.5918368E+00  0.0000000E+00  0.2244898E+00 -0.7846693E-10  0.0000000E+00  0.1362697E-01
  0.6326531E+00  0.0000000E+00  0.2244898E+00 -0.1096559E-09  0.0000000E+00  0.1362697E-01
  0.6734694E+00  0.0000000E+00  0.2244898E+00 -0.1366441E-09  0.0000000E+00  0.1362697E-01
  0.7142857E+00  0.0000000E+00  0.2244898E+00 -0.1628957E-09  0.0000000E+00  0.1362697E-01
  0.7551020E+00  0.0000000E+00  0.2244898E+00 -0.1773689E-09  0.0000000E+00  0.1362697E-01
  0.7959183E+00  0.0000000E+00  0.2244898E+00 -0.1699583E-09  0.0000000E+00  0.1362697E-01
  0.8367347E+00  0.0000000E+00  0.2244898E+00 -0.1547947E-09  0.0000000E+00  0.1362697E-01
  0.8775510E+00  0.0000000E+00  0.2244898E+00 -0.1364971E-09  0.0000000E+00  0.1362697E-01
  0.9183673E+00  0.0000000E+00  0.2244898E+00 -0.1111250E-09  0.0000000E+00  0.1362697E-01
  0.9591837E+00  0.0000000E+00  0.2244898E+00 -0.9712057E-10  0.0000000E+00  0.1362697E-01
  0.1000000E+01  0.0000000E+00  0.2244898E+00 -0.8644483E-10  0.0000000E+00  0.1362697E-01
  0.1040816E+01  0.0000000E+00  0.2244898E+00 -0.8255697E-10  0.0000000E+00  0.1362697E-01
  0.1081633E+01  0.0000000E+00  0.2244898E+00 -0.8717758E-10  0.0000000E+00  0.1362697E-01
  0.1122449E+01  0.0000000E+00  0.2244898E+00 -0.1026930E-09  0.0000000E+00  0.1362697E-01
  0.1163265E+01  0.0000000E+00  0.2244898E+00 -0.1152666E-09  0.0000000E+00  0.1362697E-01
  0.1204082E+01  0.0000000E+00  0.2244898E+00 -0.1409417E-09  0.0000000E+00  0.1362697E-01
  0.1244898E+01  0.0000000E+00  0.2244898E+00 -0.1596477E-09  0.0000000E+00  0.1362697E-01
  0.1285714E+01  0.0000000E+00  0.2244898E+00 -0.1748565E-09  0.0000000E+00  0.1362697E-01
  0.1326531E+01  0.0000000E+00  0.2244898E+00 -0.1838797E-09  0.0000000E+00  0.1362697E-01
  0.1367347E+01  0.0000000E+00  0.2244898E+00 -0.1836530E-09  0.0000000E+00  0.1362697E-01
  0.1408163E+01  0.0000000E+00  0.2244898E+00 -0.1727043E-09  0.0000000E+00  0.1362697E-01
  0.1448980E+01  0.0000000E+00  0.2244898E+00 -0.1510419E-09  0.0000000E+00  0.1362697E-01
  0.1489796E+01  0.0000000E+00  0.2244898E+00 -0.1128309E-09  0.0000000E+00  0.1362697E-01
  0.1530612E+01  0.0000000E+00  0.2244898E+00 -0.5224860E-10  0.0000000E+00  0.1362697E-01
  0.1571429E+01  0.0000000E+00  0.2244898E+00 -0.4967891E-10  0.0000000E+00  0.1362697E-01
  0.1612245E+01  0.0000000E+00  0.2244898E+00  0.1258889E-09  0.0000000E+00  0.1362697E-01
  0.1653061E+01  0.0000000E+00  0.2244898E+00  0.1018712E-09  0.0000000E+00  0.1362697E-01
  0.1693878E+01  0.0000000E+00  0.2244898E+00  0.1704005E-09  0.0000000E+00  0.1362697E-01
  0.1734694E+01  0.0000000E+00  0.2244898E+00  0.2340725E-09  0.0000000E+00  0.1362697E-01
  0.1775510E+01  0.0000000E+00  0.2244898E+00  0.2336033E-09  0.0000000E+00  0.1362697E-01
  0.1816326E+01  0.0000000E+00  0.2244898E+00  0.2342232E-09  0.0000000E+00  0.1362697E-01
  0.1857143E+01  0.0000000E+00  0.2244898E+00  0.1941379E-09  0.0000000E+00  0.1362697E-01
  0.1897959E+01  0.0000000E+00  0.2244898E+00  0.1874297E-09  0.0000000E+00  0.1362697E-01
  0.1938776E+01  0.0000000E+00  0.2244898E+00  0.1052727E-09  0.0000000E+00  0.1362697E-01
  0.1989796E+01  0.0000000E+00  0.2244898E+00 -0.2408210E-10  0.0000000E+00  0.1362697E-01
  0.2040816E-01  0.0000000E+00  0.2653061E+00 -0.5144084E-10  0.0000000E+00  0.1353222E-01
  0.6122449E-01  0.0000000E+00  0.2653061E+00  0.6755449E-10  0.0000000E+00  0.1353222E-01
  0.1020408E+00  0.0000000E+00  0.2653061E+00  0.9407049E-10  0.0000000E+00  0.1353222E-01
  0.1428571E+00  0.0000000E+00  0.2653061E+00  0.1471074E-09  0.0000000E+00  0.1353222E-01
  0.1836735E+00  0.0000000E+00  0.2653061E+00  0.2110566E-09  0.0000000E+00  0.1353222E-01
  0.2244898E+00  0.0000000E+00  0.2653061E+00  0.2363329E-09  0.0000000E+00  0.1353222E-01
  0.2653061E+00  0.0000000E+00  0.2653061E+00  0.2183373E-09  0.0000000E+00  0.1353222E-01
  0.3061225E+00  0.0000000E+00  0.2653061E+00  0.2630322E-09  0.0000000E+00  0.1353222E-01
  0.3469388E+00  0.0000000E+00  0.2653061E+00  0.2504754E-09  0.0000000E+00  0.1353222E-01
  0.3877551E+00  0.0000000E+00  0.2653061E+00  0.2253229E-09  0.0000000E+00  0.1353222E-01
  0.4285714E+00  0.0000000E+00  0.2653061E+00  0.1957137E-09  0.0000000E+00  0.1353222E-01
  0.4693878E+00  0.0000000E+00  0.2653061E+00  0.1448800E-09  0.0000000E+00  0.1353222E-01
  0.5102041E+00  0.0000000E+00  0.2653061E+00  0.2659448E-10  0.0000000E+00  0.1353222E-01
  0.5510204E+00  0.0000000E+00  0.2653061E+00  0.3200418E-10  0.0000000E+00  0.1353222E-01
  0.5918368E+00  0.0000000E+00  0.2653061E+00 -0.7719730E-10  0.0000000E+00  0.1353222E-01
  0.6326531E+00  0.0000000E+00  0.2653061E+00 -0.1139935E-09  0.0000000E+00  0.1353222E-01
  0.6734694E+00  0.0000000E+00  0.2653061E+00 -0.1425662E-09  0.0000000E+00  0.1353222E-01
  0.7142857E+00  0.0000000E+00  0.2653061E+00 -0.1671562E-09  0.0000000E+00  0.1353222E-01
  0.7551020E+00  0.0000000E+00  0.2653061E+00 -0.1812389E-09  0.0000000E+00  0.1353222E-01
  0.7959183E+00  0.0000000E+00  0.2653061E+00 -0.1761386E-09  0.0000000E+00  0.1353222E-01
  0.8367347E+00  0.0000000E+00  0.2653061E+00 -0.1586290E-09  0.0000000E+00  0.1353222E-01
  0.8775510E+00  0.0000000E+00  0.2653061E+00 -0.1376380E-09  0.0000000E+00  0.1353222E-01
  0.9183673E+00  0.0000000E+00  0.2653061E+00 -0.1137484E-09  0.0000000E+00  0.1353222E-01
  0.9591837E+00  0.0000000E+00  0.2653061E+00 -0.9741405E-10  0.0000000E+00  0.1353222E-01
  0.1000000E+01  0.0000000E+00  0.2653061E+00 -0.8728646E-10  0.0000000E+00  0.1353222E-01
  0.1040816E+01  0.0000000E+00  0.2653061E+00 -0.8350202E-10  0.0000000E+00  0.1353222E-01
  0.1081633E+01  0.0000000E+00  0.2653061E+00 -0.8814330E-10  0.0000000E+00  0.1353222E-01
  0.1122449E+01  0.0000000E+00  0.2653061E+00 -0.1024063E-09  0.0000000E+00  0.1353222E-01
  0.1163265E+01  0.0000000E+00  0.2653061E+00 -0.1202279E-09  0.0000000E+00  0.1353222E-01
  0.1204082E+01  0.0000000E+00  0.2653061E+00 -0.1455792E-09  0.0000000E+00  0.1353222E-01
  0.1244898E+01  0.0000000E+00  0.2653061E+00 -0.1678132E-09  0.0000000E+00  0.1353222E-01
  0.1285714E+01  0.0000000E+00  0.2653061E+00 -0.1839384E-09  0.0000000E+00  0.1353222E-01
  0.1326531E+01  0.0000000E+00  0.2653061E+00 -0.1924753E-09  0.0000000E+00  0.1353222E-01