title = "dataset feddes"
variables = "x", "y", "z", "vx", "vy", "vz"
zone t = "velocities, solution time =  1.000E+01 days        " i =   49, j =   49, k =    1,  f=point
  0.2040816E-01  0.0000000E+00  0.2040816E-01  0.3860247E-07  0.0000000E+00 -0.8630097E-01
  0.6122449E-01  0.0000000E+00  0.2040816E-01  0.1173740E-06  0.0000000E+00 -0.8630079E-01
  0.1020408E+00  0.0000000E+00  0.2040816E-01  0.1968424E-06  0.0000000E+00 -0.8630043E-01
  0.1428571E+00  0.0000000E+00  0.2040816E-01  0.2724863E-06  0.0000000E+00 -0.8629990E-01
  0.1836735E+00  0.0000000E+00  0.2040816E-01  0.3429949E-06  0.0000000E+00 -0.8629920E-01
  0.2244898E+00  0.0000000E+00  0.2040816E-01  0.4077399E-06  0.0000000E+00 -0.8629834E-01
  0.2653061E+00  0.0000000E+00  0.2040816E-01  0.4654214E-06  0.0000000E+00 -0.8629735E-01
  0.3061225E+00  0.0000000E+00  0.2040816E-01  0.5150210E-06  0.0000000E+00 -0.8629623E-01
  0.3469388E+00  0.0000000E+00  0.2040816E-01  0.5559403E-06  0.0000000E+00 -0.8629502E-01
  0.3877551E+00  0.0000000E+00  0.2040816E-01  0.5874350E-06  0.0000000E+00 -0.8629372E-01
  0.4285714E+00  0.0000000E+00  0.2040816E-01  0.6087812E-06  0.0000000E+00 -0.8629235E-01
  0.4693878E+00  0.0000000E+00  0.2040816E-01  0.6194885E-06  0.0000000E+00 -0.8629096E-01
  0.5102041E+00  0.0000000E+00  0.2040816E-01  0.6192938E-06  0.0000000E+00 -0.8628955E-01
  0.5510204E+00  0.0000000E+00  0.2040816E-01  0.6081031E-06  0.0000000E+00 -0.8628815E-01
  0.5918368E+00  0.0000000E+00  0.2040816E-01  0.5859838E-06  0.0000000E+00 -0.8628679E-01
  0.6326531E+00  0.0000000E+00  0.2040816E-01  0.5531846E-06  0.0000000E+00 -0.8628550E-01
  0.6734694E+00  0.0000000E+00  0.2040816E-01  0.5101498E-06  0.0000000E+00 -0.8628429E-01
  0.7142857E+00  0.0000000E+00  0.2040816E-01  0.4575154E-06  0.0000000E+00 -0.8628319E-01
  0.7551020E+00  0.0000000E+00  0.2040816E-01  0.3960951E-06  0.0000000E+00 -0.8628222E-01
  0.7959183E+00  0.0000000E+00  0.2040816E-01  0.3268646E-06  0.0000000E+00 -0.8628139E-01
  0.8367347E+00  0.0000000E+00  0.2040816E-01  0.2509503E-06  0.0000000E+00 -0.8628074E-01
  0.8775510E+00  0.0000000E+00  0.2040816E-01  0.1696279E-06  0.0000000E+00 -0.8628026E-01
  0.9183673E+00  0.0000000E+00  0.2040816E-01  0.8431635E-07  0.0000000E+00 -0.8627997E-01
  0.9591837E+00  0.0000000E+00  0.2040816E-01 -0.3564760E-08  0.0000000E+00 -0.8627988E-01
  0.1000000E+01  0.0000000E+00  0.2040816E-01 -0.8979751E-07  0.0000000E+00 -0.8627998E-01
  0.1040816E+01  0.0000000E+00  0.2040816E-01 -0.1765611E-06  0.0000000E+00 -0.8628029E-01
  0.1081633E+01  0.0000000E+00  0.2040816E-01 -0.2629945E-06  0.0000000E+00 -0.8628079E-01
  0.1122449E+01  0.0000000E+00  0.2040816E-01 -0.3453446E-06  0.0000000E+00 -0.8628148E-01
  0.1163265E+01  0.0000000E+00  0.2040816E-01 -0.4222073E-06  0.0000000E+00 -0.8628235E-01
  0.1204082E+01  0.0000000E+00  0.2040816E-01 -0.4928168E-06  0.0000000E+00 -0.8628339E-01
  0.1244898E+01  0.0000000E+00  0.2040816E-01 -0.5556588E-06  0.0000000E+00 -0.8628459E-01
  0.1285714E+01  0.0000000E+00  0.2040816E-01 -0.6096241E-06  0.0000000E+00 -0.8628591E-01
  0.1326531E+01  0.0000000E+00  0.2040816E-01 -0.6541983E-06  0.0000000E+00 -0.8628735E-01
  0.1367347E+01  0.0000000E+00  0.2040816E-01 -0.6887075E-06  0.0000000E+00 -0.8628888E-01
  0.1408163E+01  0.0000000E+00  0.2040816E-01 -0.7125151E-06  0.0000000E+00 -0.8629047E-01
  0.1448980E+01  0.0000000E+00  0.2040816E-01 -0.7252729E-06  0.0000000E+00 -0.8629211E-01
  0.1489796E+01  0.0000000E+00  0.2040816E-01 -0.7268899E-06  0.0000000E+00 -0.8629376E-01
  0.1530612E+01  0.0000000E+00  0.2040816E-01 -0.7174412E-06  0.0000000E+00 -0.8629540E-01
  0.1571429E+01  0.0000000E+00  0.2040816E-01 -0.6971416E-06  0.0000000E+00 -0.8629701E-01
  0.1612245E+01  0.0000000E+00  0.2040816E-01 -0.6663578E-06  0.0000000E+00 -0.8629856E-01
  0.1653061E+01  0.0000000E+00  0.2040816E-01 -0.6256131E-06  0.0000000E+00 -0.8630003E-01
  0.1693878E+01  0.0000000E+00  0.2040816E-01 -0.5755726E-06  0.0000000E+00 -0.8630140E-01
  0.1734694E+01  0.0000000E+00  0.2040816E-01 -0.5170208E-06  0.0000000E+00 -0.8630264E-01
  0.1775510E+01  0.0000000E+00  0.2040816E-01 -0.4508400E-06  0.0000000E+00 -0.8630374E-01
  0.1816326E+01  0.0000000E+00  0.2040816E-01 -0.3779954E-06  0.0000000E+00 -0.8630468E-01
  0.1857143E+01  0.0000000E+00  0.2040816E-01 -0.2995331E-06  0.0000000E+00 -0.8630546E-01
  0.1897959E+01  0.0000000E+00  0.2040816E-01 -0.2165985E-06  0.0000000E+00 -0.8630604E-01
  0.1938776E+01  0.0000000E+00  0.2040816E-01 -0.1304695E-06  0.0000000E+00 -0.8630644E-01
  0.1989796E+01  0.0000000E+00  0.2040816E-01 -0.4250743E-07  0.0000000E+00 -0.8630663E-01
  0.2040816E-01  0.0000000E+00  0.6122449E-01  0.1065582E-06  0.0000000E+00 -0.8630112E-01
  0.6122449E-01  0.0000000E+00  0.6122449E-01  0.3227985E-06  0.0000000E+00 -0.8630094E-01
  0.1020408E+00  0.0000000E+00  0.6122449E-01  0.5399331E-06  0.0000000E+00 -0.8630057E-01
  0.1428571E+00  0.0000000E+00  0.6122449E-01  0.7471698E-06  0.0000000E+00 -0.8630003E-01
  0.1836735E+00  0.0000000E+00  0.6122449E-01  0.9405126E-06  0.0000000E+00 -0.8629932E-01
  0.2244898E+00  0.0000000E+00  0.6122449E-01  0.1117903E-05  0.0000000E+00 -0.8629845E-01
  0.2653061E+00  0.0000000E+00  0.6122449E-01  0.1276065E-05  0.0000000E+00 -0.8629744E-01
  0.3061225E+00  0.0000000E+00  0.6122449E-01  0.1412216E-05  0.0000000E+00 -0.8629631E-01
  0.3469388E+00  0.0000000E+00  0.6122449E-01  0.1524526E-05  0.0000000E+00 -0.8629507E-01
  0.3877551E+00  0.0000000E+00  0.6122449E-01  0.1610947E-05  0.0000000E+00 -0.8629375E-01
  0.4285714E+00  0.0000000E+00  0.6122449E-01  0.1669559E-05  0.0000000E+00 -0.8629237E-01
  0.4693878E+00  0.0000000E+00  0.6122449E-01  0.1699030E-05  0.0000000E+00 -0.8629095E-01
  0.5102041E+00  0.0000000E+00  0.6122449E-01  0.1698617E-05  0.0000000E+00 -0.8628952E-01
  0.5510204E+00  0.0000000E+00  0.6122449E-01  0.1668045E-05  0.0000000E+00 -0.8628810E-01
  0.5918368E+00  0.0000000E+00  0.6122449E-01  0.1607492E-05  0.0000000E+00 -0.8628672E-01
  0.6326531E+00  0.0000000E+00  0.6122449E-01  0.1517642E-05  0.0000000E+00 -0.8628541E-01
  0.6734694E+00  0.0000000E+00  0.6122449E-01  0.1399713E-05  0.0000000E+00 -0.8628418E-01
  0.7142857E+00  0.0000000E+00  0.6122449E-01  0.1255446E-05  0.0000000E+00 -0.8628306E-01
  0.7551020E+00  0.0000000E+00  0.6122449E-01  0.1087068E-05  0.0000000E+00 -0.8628207E-01
  0.7959183E+00  0.0000000E+00  0.6122449E-01  0.8972452E-06  0.0000000E+00 -0.8628123E-01
  0.8367347E+00  0.0000000E+00  0.6122449E-01  0.6890603E-06  0.0000000E+00 -0.8628056E-01
  0.8775510E+00  0.0000000E+00  0.6122449E-01  0.4660236E-06  0.0000000E+00 -0.8628008E-01
  0.9183673E+00  0.0000000E+00  0.6122449E-01  0.2321425E-06  0.0000000E+00 -0.8627978E-01
  0.9591837E+00  0.0000000E+00  0.6122449E-01 -0.8138640E-08  0.0000000E+00 -0.8627968E-01
  0.1000000E+01  0.0000000E+00  0.6122449E-01 -0.2456688E-06  0.0000000E+00 -0.8627979E-01
  0.1040816E+01  0.0000000E+00  0.6122449E-01 -0.4839400E-06  0.0000000E+00 -0.8628010E-01
  0.1081633E+01  0.0000000E+00  0.6122449E-01 -0.7204836E-06  0.0000000E+00 -0.8628060E-01
  0.1122449E+01  0.0000000E+00  0.6122449E-01 -0.9463049E-06  0.0000000E+00 -0.8628130E-01
  0.1163265E+01  0.0000000E+00  0.6122449E-01 -0.1157144E-05  0.0000000E+00 -0.8628219E-01
  0.1204082E+01  0.0000000E+00  0.6122449E-01 -0.1350567E-05  0.0000000E+00 -0.8628324E-01
  0.1244898E+01  0.0000000E+00  0.6122449E-01 -0.1522808E-05  0.0000000E+00 -0.8628445E-01
  0.1285714E+01  0.0000000E+00  0.6122449E-01 -0.1670855E-05  0.0000000E+00 -0.8628580E-01
  0.1326531E+01  0.0000000E+00  0.6122449E-01 -0.1793068E-05  0.0000000E+00 -0.8628725E-01
  0.1367347E+01  0.0000000E+00  0.6122449E-01 -0.1887596E-05  0.0000000E+00 -0.8628880E-01
  0.1408163E+01  0.0000000E+00  0.6122449E-01 -0.1952783E-05  0.0000000E+00 -0.8629042E-01
  0.1448980E+01  0.0000000E+00  0.6122449E-01 -0.1987703E-05  0.0000000E+00 -0.8629208E-01
  0.1489796E+01  0.0000000E+00  0.6122449E-01 -0.1992087E-05  0.0000000E+00 -0.8629375E-01
  0.1530612E+01  0.0000000E+00  0.6122449E-01 -0.1966133E-05  0.0000000E+00 -0.8629542E-01
  0.1571429E+01  0.0000000E+00  0.6122449E-01 -0.1910433E-05  0.0000000E+00 -0.8629705E-01
  0.1612245E+01  0.0000000E+00  0.6122449E-01 -0.1826007E-05  0.0000000E+00 -0.8629862E-01
  0.1653061E+01  0.0000000E+00  0.6122449E-01 -0.1714297E-05  0.0000000E+00 -0.8630011E-01
  0.1693878E+01  0.0000000E+00  0.6122449E-01 -0.1577131E-05  0.0000000E+00 -0.8630149E-01
  0.1734694E+01  0.0000000E+00  0.6122449E-01 -0.1416660E-05  0.0000000E+00 -0.8630275E-01
  0.1775510E+01  0.0000000E+00  0.6122449E-01 -0.1235296E-05  0.0000000E+00 -0.8630387E-01
  0.1816326E+01  0.0000000E+00  0.6122449E-01 -0.1035672E-05  0.0000000E+00 -0.8630482E-01
  0.1857143E+01  0.0000000E+00  0.6122449E-01 -0.8206355E-06  0.0000000E+00 -0.8630560E-01
  0.1897959E+01  0.0000000E+00  0.6122449E-01 -0.5933197E-06  0.0000000E+00 -0.8630620E-01
  0.1938776E+01  0.0000000E+00  0.6122449E-01 -0.3573558E-06  0.0000000E+00 -0.8630660E-01
  0.1989796E+01  0.0000000E+00  0.6122449E-01 -0.1172279E-06  0.0000000E+00 -0.8630680E-01
  0.2040816E-01  0.0000000E+00  0.1020408E+00  0.1611103E-06  0.0000000E+00 -0.8630137E-01
  0.6122449E-01  0.0000000E+00  0.1020408E+00  0.4867874E-06  0.0000000E+00 -0.8630118E-01
  0.1020408E+00  0.0000000E+00  0.1020408E+00  0.8119039E-06  0.0000000E+00 -0.8630080E-01
  0.1428571E+00  0.0000000E+00  0.1020408E+00  0.1122877E-05  0.0000000E+00 -0.8630025E-01
  0.1836735E+00  0.0000000E+00  0.1020408E+00  0.1413398E-05  0.0000000E+00 -0.8629952E-01
  0.2244898E+00  0.0000000E+00  0.1020408E+00  0.1679831E-05  0.0000000E+00 -0.8629863E-01
  0.2653061E+00  0.0000000E+00  0.1020408E+00  0.1917590E-05  0.0000000E+00 -0.8629760E-01
  0.3061225E+00  0.0000000E+00  0.1020408E+00  0.2122521E-05  0.0000000E+00 -0.8629644E-01
  0.3469388E+00  0.0000000E+00  0.1020408E+00  0.2291592E-05  0.0000000E+00 -0.8629517E-01
  0.3877551E+00  0.0000000E+00  0.1020408E+00  0.2421708E-05  0.0000000E+00 -0.8629381E-01
  0.4285714E+00  0.0000000E+00  0.1020408E+00  0.2510072E-05  0.0000000E+00 -0.8629239E-01
  0.4693878E+00  0.0000000E+00  0.1020408E+00  0.2554701E-05  0.0000000E+00 -0.8629094E-01
  0.5102041E+00  0.0000000E+00  0.1020408E+00  0.2554433E-05  0.0000000E+00 -0.8628947E-01
  0.5510204E+00  0.0000000E+00  0.1020408E+00  0.2508818E-05  0.0000000E+00 -0.8628801E-01
  0.5918368E+00  0.0000000E+00  0.1020408E+00  0.2418110E-05  0.0000000E+00 -0.8628659E-01
  0.6326531E+00  0.0000000E+00  0.1020408E+00  0.2283333E-05  0.0000000E+00 -0.8628524E-01
  0.6734694E+00  0.0000000E+00  0.1020408E+00  0.2106314E-05  0.0000000E+00 -0.8628397E-01
  0.7142857E+00  0.0000000E+00  0.1020408E+00  0.1889663E-05  0.0000000E+00 -0.8628282E-01
  0.7551020E+00  0.0000000E+00  0.1020408E+00  0.1636716E-05  0.0000000E+00 -0.8628180E-01
  0.7959183E+00  0.0000000E+00  0.1020408E+00  0.1351471E-05  0.0000000E+00 -0.8628094E-01
  0.8367347E+00  0.0000000E+00  0.1020408E+00  0.1038557E-05  0.0000000E+00 -0.8628025E-01
  0.8775510E+00  0.0000000E+00  0.1020408E+00  0.7032599E-06  0.0000000E+00 -0.8627975E-01
  0.9183673E+00  0.0000000E+00  0.1020408E+00  0.3516978E-06  0.0000000E+00 -0.8627944E-01
  0.9591837E+00  0.0000000E+00  0.1020408E+00 -0.8496070E-08  0.0000000E+00 -0.8627934E-01
  0.1000000E+01  0.0000000E+00  0.1020408E+00 -0.3671555E-06  0.0000000E+00 -0.8627944E-01
  0.1040816E+01  0.0000000E+00  0.1020408E+00 -0.7261111E-06  0.0000000E+00 -0.8627975E-01
  0.1081633E+01  0.0000000E+00  0.1020408E+00 -0.1080986E-05  0.0000000E+00 -0.8628027E-01
  0.1122449E+01  0.0000000E+00  0.1020408E+00 -0.1420273E-05  0.0000000E+00 -0.8628099E-01
  0.1163265E+01  0.0000000E+00  0.1020408E+00 -0.1737245E-05  0.0000000E+00 -0.8628189E-01
  0.1204082E+01  0.0000000E+00  0.1020408E+00 -0.2027688E-05  0.0000000E+00 -0.8628297E-01
  0.1244898E+01  0.0000000E+00  0.1020408E+00 -0.2286417E-05  0.0000000E+00 -0.8628421E-01
  0.1285714E+01  0.0000000E+00  0.1020408E+00 -0.2508971E-05  0.0000000E+00 -0.8628559E-01
  0.1326531E+01  0.0000000E+00  0.1020408E+00 -0.2692550E-05  0.0000000E+00 -0.8628708E-01
  0.1367347E+01  0.0000000E+00  0.1020408E+00 -0.2834378E-05  0.0000000E+00 -0.8628866E-01
  0.1408163E+01  0.0000000E+00  0.1020408E+00 -0.2932106E-05  0.0000000E+00 -0.8629032E-01
  0.1448980E+01  0.0000000E+00  0.1020408E+00 -0.2984387E-05  0.0000000E+00 -0.8629202E-01
  0.1489796E+01  0.0000000E+00  0.1020408E+00 -0.2990804E-05  0.0000000E+00 -0.8629373E-01
  0.1530612E+01  0.0000000E+00  0.1020408E+00 -0.2951641E-05  0.0000000E+00 -0.8629543E-01
  0.1571429E+01  0.0000000E+00  0.1020408E+00 -0.2867810E-05  0.0000000E+00 -0.8629710E-01
  0.1612245E+01  0.0000000E+00  0.1020408E+00 -0.2740870E-05  0.0000000E+00 -0.8629871E-01
  0.1653061E+01  0.0000000E+00  0.1020408E+00 -0.2573010E-05  0.0000000E+00 -0.8630023E-01
  0.1693878E+01  0.0000000E+00  0.1020408E+00 -0.2366988E-05  0.0000000E+00 -0.8630165E-01
  0.1734694E+01  0.0000000E+00  0.1020408E+00 -0.2126040E-05  0.0000000E+00 -0.8630294E-01
  0.1775510E+01  0.0000000E+00  0.1020408E+00 -0.1853786E-05  0.0000000E+00 -0.8630408E-01
  0.1816326E+01  0.0000000E+00  0.1020408E+00 -0.1554164E-05  0.0000000E+00 -0.8630505E-01
  0.1857143E+01  0.0000000E+00  0.1020408E+00 -0.1231417E-05  0.0000000E+00 -0.8630585E-01
  0.1897959E+01  0.0000000E+00  0.1020408E+00 -0.8902222E-06  0.0000000E+00 -0.8630646E-01
  0.1938776E+01  0.0000000E+00  0.1020408E+00 -0.5361453E-06  0.0000000E+00 -0.8630687E-01
  0.1989796E+01  0.0000000E+00  0.1020408E+00 -0.1770449E-06  0.0000000E+00 -0.8630707E-01
  0.2040816E-01  0.0000000E+00  0.1428571E+00  0.2091328E-06  0.0000000E+00 -0.8630169E-01
  0.6122449E-01  0.0000000E+00  0.1428571E+00  0.6313794E-06  0.0000000E+00 -0.8630150E-01
  0.1020408E+00  0.0000000E+00  0.1428571E+00  0.1051157E-05  0.0000000E+00 -0.8630111E-01
  0.1428571E+00  0.0000000E+00  0.1428571E+00  0.1452956E-05  0.0000000E+00 -0.8630054E-01
  0.1836735E+00  0.0000000E+00  0.1428571E+00  0.1828788E-05  0.0000000E+00 -0.8629978E-01
  0.2244898E+00  0.0000000E+00  0.1428571E+00  0.2173555E-05  0.0000000E+00 -0.8629887E-01
  0.2653061E+00  0.0000000E+00  0.1428571E+00  0.2481430E-05  0.0000000E+00 -0.8629780E-01
  0.3061225E+00  0.0000000E+00  0.1428571E+00  0.2747059E-05  0.0000000E+00 -0.8629660E-01
  0.3469388E+00  0.0000000E+00  0.1428571E+00  0.2966329E-05  0.0000000E+00 -0.8629528E-01
  0.3877551E+00  0.0000000E+00  0.1428571E+00  0.3135209E-05  0.0000000E+00 -0.8629388E-01
  0.4285714E+00  0.0000000E+00  0.1428571E+00  0.3250129E-05  0.0000000E+00 -0.8629241E-01
  0.4693878E+00  0.0000000E+00  0.1428571E+00  0.3308515E-05  0.0000000E+00 -0.8629090E-01
  0.5102041E+00  0.0000000E+00  0.1428571E+00  0.3308813E-05  0.0000000E+00 -0.8628938E-01
  0.5510204E+00  0.0000000E+00  0.1428571E+00  0.3250394E-05  0.0000000E+00 -0.8628787E-01
  0.5918368E+00  0.0000000E+00  0.1428571E+00  0.3133560E-05  0.0000000E+00 -0.8628640E-01
  0.6326531E+00  0.0000000E+00  0.1428571E+00  0.2959621E-05  0.0000000E+00 -0.8628499E-01
  0.6734694E+00  0.0000000E+00  0.1428571E+00  0.2730928E-05  0.0000000E+00 -0.8628368E-01
  0.7142857E+00  0.0000000E+00  0.1428571E+00  0.2450847E-05  0.0000000E+00 -0.8628249E-01
  0.7551020E+00  0.0000000E+00  0.1428571E+00  0.2123684E-05  0.0000000E+00 -0.8628143E-01
  0.7959183E+00  0.0000000E+00  0.1428571E+00  0.1754611E-05  0.0000000E+00 -0.8628053E-01
  0.8367347E+00  0.0000000E+00  0.1428571E+00  0.1349628E-05  0.0000000E+00 -0.8627981E-01
  0.8775510E+00  0.0000000E+00  0.1428571E+00  0.9155963E-06  0.0000000E+00 -0.8627929E-01
  0.9183673E+00  0.0000000E+00  0.1428571E+00  0.4603844E-06  0.0000000E+00 -0.8627896E-01
  0.9591837E+00  0.0000000E+00  0.1428571E+00 -0.5468840E-08  0.0000000E+00 -0.8627885E-01
  0.1000000E+01  0.0000000E+00  0.1428571E+00 -0.4710504E-06  0.0000000E+00 -0.8627896E-01
  0.1040816E+01  0.0000000E+00  0.1428571E+00 -0.9366138E-06  0.0000000E+00 -0.8627928E-01
  0.1081633E+01  0.0000000E+00  0.1428571E+00 -0.1395585E-05  0.0000000E+00 -0.8627981E-01
  0.1122449E+01  0.0000000E+00  0.1428571E+00 -0.1834495E-05  0.0000000E+00 -0.8628055E-01
  0.1163265E+01  0.0000000E+00  0.1428571E+00 -0.2244758E-05  0.0000000E+00 -0.8628148E-01
  0.1204082E+01  0.0000000E+00  0.1428571E+00 -0.2620500E-05  0.0000000E+00 -0.8628259E-01
  0.1244898E+01  0.0000000E+00  0.1428571E+00 -0.2955186E-05  0.0000000E+00 -0.8628387E-01
  0.1285714E+01  0.0000000E+00  0.1428571E+00 -0.3243107E-05  0.0000000E+00 -0.8628529E-01
  0.1326531E+01  0.0000000E+00  0.1428571E+00 -0.3480438E-05  0.0000000E+00 -0.8628683E-01
  0.1367347E+01  0.0000000E+00  0.1428571E+00 -0.3663596E-05  0.0000000E+00 -0.8628846E-01
  0.1408163E+01  0.0000000E+00  0.1428571E+00 -0.3789655E-05  0.0000000E+00 -0.8629017E-01
  0.1448980E+01  0.0000000E+00  0.1428571E+00 -0.3856923E-05  0.0000000E+00 -0.8629192E-01
  0.1489796E+01  0.0000000E+00  0.1428571E+00 -0.3864865E-05  0.0000000E+00 -0.8629369E-01
  0.1530612E+01  0.0000000E+00  0.1428571E+00 -0.3813862E-05  0.0000000E+00 -0.8629545E-01
  0.1571429E+01  0.0000000E+00  0.1428571E+00 -0.3705134E-05  0.0000000E+00 -0.8629717E-01
  0.1612245E+01  0.0000000E+00  0.1428571E+00 -0.3540735E-05  0.0000000E+00 -0.8629882E-01
  0.1653061E+01  0.0000000E+00  0.1428571E+00 -0.3323532E-05  0.0000000E+00 -0.8630039E-01
  0.1693878E+01  0.0000000E+00  0.1428571E+00 -0.3057115E-05  0.0000000E+00 -0.8630185E-01
  0.1734694E+01  0.0000000E+00  0.1428571E+00 -0.2745684E-05  0.0000000E+00 -0.8630318E-01
  0.1775510E+01  0.0000000E+00  0.1428571E+00 -0.2393927E-05  0.0000000E+00 -0.8630435E-01
  0.1816326E+01  0.0000000E+00  0.1428571E+00 -0.2006930E-05  0.0000000E+00 -0.8630536E-01
  0.1857143E+01  0.0000000E+00  0.1428571E+00 -0.1590156E-05  0.0000000E+00 -0.8630618E-01
  0.1897959E+01  0.0000000E+00  0.1428571E+00 -0.1149606E-05  0.0000000E+00 -0.8630680E-01
  0.1938776E+01  0.0000000E+00  0.1428571E+00 -0.6924281E-06  0.0000000E+00 -0.8630722E-01
  0.1989796E+01  0.0000000E+00  0.1428571E+00 -0.2293867E-06  0.0000000E+00 -0.8630744E-01
  0.2040816E-01  0.0000000E+00  0.1836735E+00  0.2533511E-06  0.0000000E+00 -0.8630209E-01
  0.6122449E-01  0.0000000E+00  0.1836735E+00  0.7642062E-06  0.0000000E+00 -0.8630189E-01
  0.1020408E+00  0.0000000E+00  0.1836735E+00  0.1270702E-05  0.0000000E+00 -0.8630148E-01
  0.1428571E+00  0.0000000E+00  0.1836735E+00  0.1755688E-05  0.0000000E+00 -0.8630089E-01
  0.1836735E+00  0.0000000E+00  0.1836735E+00  0.2209768E-05  0.0000000E+00 -0.8630010E-01
  0.2244898E+00  0.0000000E+00  0.1836735E+00  0.2626533E-05  0.0000000E+00 -0.8629915E-01
  0.2653061E+00  0.0000000E+00  0.1836735E+00  0.2998967E-05  0.0000000E+00 -0.8629803E-01
  0.3061225E+00  0.0000000E+00  0.1836735E+00  0.3320607E-05  0.0000000E+00 -0.8629678E-01
  0.3469388E+00  0.0000000E+00  0.1836735E+00  0.3586339E-05  0.0000000E+00 -0.8629542E-01
  0.3877551E+00  0.0000000E+00  0.1836735E+00  0.3791260E-05  0.0000000E+00 -0.8629395E-01
  0.4285714E+00  0.0000000E+00  0.1836735E+00  0.3931070E-05  0.0000000E+00 -0.8629242E-01
  0.4693878E+00  0.0000000E+00  0.1836735E+00  0.4002625E-05  0.0000000E+00 -0.8629085E-01
  0.5102041E+00  0.0000000E+00  0.1836735E+00  0.4003986E-05  0.0000000E+00 -0.8628926E-01
  0.5510204E+00  0.0000000E+00  0.1836735E+00  0.3934334E-05  0.0000000E+00 -0.8628768E-01
  0.5918368E+00  0.0000000E+00  0.1836735E+00  0.3793991E-05  0.0000000E+00 -0.8628615E-01
  0.6326531E+00  0.0000000E+00  0.1836735E+00  0.3584507E-05  0.0000000E+00 -0.8628468E-01
  0.6734694E+00  0.0000000E+00  0.1836735E+00  0.3308695E-05  0.0000000E+00 -0.8628331E-01
  0.7142857E+00  0.0000000E+00  0.1836735E+00  0.2970604E-05  0.0000000E+00 -0.8628206E-01
  0.7551020E+00  0.0000000E+00  0.1836735E+00  0.2575430E-05  0.0000000E+00 -0.8628095E-01
  0.7959183E+00  0.0000000E+00  0.1836735E+00  0.2129429E-05  0.0000000E+00 -0.8628001E-01
  0.8367347E+00  0.0000000E+00  0.1836735E+00  0.1639876E-05  0.0000000E+00 -0.8627925E-01
  0.8775510E+00  0.0000000E+00  0.1836735E+00  0.1115081E-05  0.0000000E+00 -0.8627870E-01
  0.9183673E+00  0.0000000E+00  0.1836735E+00  0.5645439E-06  0.0000000E+00 -0.8627836E-01
  0.9591837E+00  0.0000000E+00  0.1836735E+00  0.1169429E-08  0.0000000E+00 -0.8627824E-01
  0.1000000E+01  0.0000000E+00  0.1836735E+00 -0.5630455E-06  0.0000000E+00 -0.8627834E-01
  0.1040816E+01  0.0000000E+00  0.1836735E+00 -0.1126817E-05  0.0000000E+00 -0.8627867E-01
  0.1081633E+01  0.0000000E+00  0.1836735E+00 -0.1681557E-05  0.0000000E+00 -0.8627922E-01
  0.1122449E+01  0.0000000E+00  0.1836735E+00 -0.2212019E-05  0.0000000E+00 -0.8627998E-01
  0.1163265E+01  0.0000000E+00  0.1836735E+00 -0.2707977E-05  0.0000000E+00 -0.8628095E-01
  0.1204082E+01  0.0000000E+00  0.1836735E+00 -0.3162049E-05  0.0000000E+00 -0.8628211E-01
  0.1244898E+01  0.0000000E+00  0.1836735E+00 -0.3566394E-05  0.0000000E+00 -0.8628343E-01
  0.1285714E+01  0.0000000E+00  0.1836735E+00 -0.3914159E-05  0.0000000E+00 -0.8628490E-01
  0.1326531E+01  0.0000000E+00  0.1836735E+00 -0.4200591E-05  0.0000000E+00 -0.8628650E-01
  0.1367347E+01  0.0000000E+00  0.1836735E+00 -0.4421388E-05  0.0000000E+00 -0.8628820E-01
  0.1408163E+01  0.0000000E+00  0.1836735E+00 -0.4573110E-05  0.0000000E+00 -0.8628997E-01
  0.1448980E+01  0.0000000E+00  0.1836735E+00 -0.4653774E-05  0.0000000E+00 -0.8629179E-01
  0.1489796E+01  0.0000000E+00  0.1836735E+00 -0.4662765E-05  0.0000000E+00 -0.8629363E-01
  0.1530612E+01  0.0000000E+00  0.1836735E+00 -0.4600587E-05  0.0000000E+00 -0.8629545E-01
  0.1571429E+01  0.0000000E+00  0.1836735E+00 -0.4468768E-05  0.0000000E+00 -0.8629723E-01
  0.1612245E+01  0.0000000E+00  0.1836735E+00 -0.4269848E-05  0.0000000E+00 -0.8629895E-01
  0.1653061E+01  0.0000000E+00  0.1836735E+00 -0.4007336E-05  0.0000000E+00 -0.8630058E-01
  0.1693878E+01  0.0000000E+00  0.1836735E+00 -0.3685603E-05  0.0000000E+00 -0.8630209E-01
  0.1734694E+01  0.0000000E+00  0.1836735E+00 -0.3309747E-05  0.0000000E+00 -0.8630346E-01
  0.1775510E+01  0.0000000E+00  0.1836735E+00 -0.2885445E-05  0.0000000E+00 -0.8630468E-01
  0.1816326E+01  0.0000000E+00  0.1836735E+00 -0.2418842E-05  0.0000000E+00 -0.8630572E-01
  0.1857143E+01  0.0000000E+00  0.1836735E+00 -0.1916520E-05  0.0000000E+00 -0.8630657E-01
  0.1897959E+01  0.0000000E+00  0.1836735E+00 -0.1385665E-05  0.0000000E+00 -0.8630722E-01
  0.1938776E+01  0.0000000E+00  0.1836735E+00 -0.8348037E-06  0.0000000E+00 -0.8630766E-01
  0.1989796E+01  0.0000000E+00  0.1836735E+00 -0.2770307E-06  0.0000000E+00 -0.8630788E-01
  0.2040816E-01  0.0000000E+00  0.2244898E+00  0.2953089E-06  0.0000000E+00 -0.8630255E-01
  0.6122449E-01  0.0000000E+00  0.2244898E+00  0.8899443E-06  0.0000000E+00 -0.8630233E-01
  0.1020408E+00  0.0000000E+00  0.2244898E+00  0.1478335E-05  0.0000000E+00 -0.8630191E-01
  0.1428571E+00  0.0000000E+00  0.2244898E+00  0.2041941E-05  0.0000000E+00 -0.8630129E-01
  0.1836735E+00  0.0000000E+00  0.2244898E+00  0.2570079E-05  0.0000000E+00 -0.8630047E-01
  0.2244898E+00  0.0000000E+00  0.2244898E+00  0.3055116E-05  0.0000000E+00 -0.8629947E-01
  0.2653061E+00  0.0000000E+00  0.2244898E+00  0.3488908E-05  0.0000000E+00 -0.8629830E-01
  0.3061225E+00  0.0000000E+00  0.2244898E+00  0.3863925E-05  0.0000000E+00 -0.8629699E-01
  0.3469388E+00  0.0000000E+00  0.2244898E+00  0.4174100E-05  0.0000000E+00 -0.8629556E-01
  0.3877551E+00  0.0000000E+00  0.2244898E+00  0.4413683E-05  0.0000000E+00 -0.8629403E-01
  0.4285714E+00  0.0000000E+00  0.2244898E+00  0.4577659E-05  0.0000000E+00 -0.8629243E-01
  0.4693878E+00  0.0000000E+00  0.2244898E+00  0.4662317E-05  0.0000000E+00 -0.8629078E-01
  0.5102041E+00  0.0000000E+00  0.2244898E+00  0.4665323E-05  0.0000000E+00 -0.8628911E-01
  0.5510204E+00  0.0000000E+00  0.2244898E+00  0.4585644E-05  0.0000000E+00 -0.8628745E-01
  0.5918368E+00  0.0000000E+00  0.2244898E+00  0.4423592E-05  0.0000000E+00 -0.8628584E-01
  0.6326531E+00  0.0000000E+00  0.2244898E+00  0.4180917E-05  0.0000000E+00 -0.8628430E-01
  0.6734694E+00  0.0000000E+00  0.2244898E+00  0.3860850E-05  0.0000000E+00 -0.8628285E-01
  0.7142857E+00  0.0000000E+00  0.2244898E+00  0.3468067E-05  0.0000000E+00 -0.8628154E-01
  0.7551020E+00  0.0000000E+00  0.2244898E+00  0.3008599E-05  0.0000000E+00 -0.8628037E-01
  0.7959183E+00  0.0000000E+00  0.2244898E+00  0.2489747E-05  0.0000000E+00 -0.8627938E-01
  0.8367347E+00  0.0000000E+00  0.2244898E+00  0.1920016E-05  0.0000000E+00 -0.8627858E-01
  0.8775510E+00  0.0000000E+00  0.2244898E+00  0.1309058E-05  0.0000000E+00 -0.8627799E-01
  0.9183673E+00  0.0000000E+00  0.2244898E+00  0.6680047E-06  0.0000000E+00 -0.8627763E-01
  0.9591837E+00  0.0000000E+00  0.2244898E+00  0.1175161E-07  0.0000000E+00 -0.8627749E-01
  0.1000000E+01  0.0000000E+00  0.2244898E+00 -0.6464094E-06  0.0000000E+00 -0.8627760E-01
  0.1040816E+01  0.0000000E+00  0.2244898E+00 -0.1303601E-05  0.0000000E+00 -0.8627793E-01
  0.1081633E+01  0.0000000E+00  0.2244898E+00 -0.1949305E-05  0.0000000E+00 -0.8627851E-01
  0.1122449E+01  0.0000000E+00  0.2244898E+00 -0.2566670E-05  0.0000000E+00 -0.8627930E-01
  0.1163265E+01  0.0000000E+00  0.2244898E+00 -0.3143900E-05  0.0000000E+00 -0.8628031E-01
  0.1204082E+01  0.0000000E+00  0.2244898E+00 -0.3672181E-05  0.0000000E+00 -0.8628152E-01
  0.1244898E+01  0.0000000E+00  0.2244898E+00 -0.4142417E-05  0.0000000E+00 -0.8628290E-01
  0.1285714E+01  0.0000000E+00  0.2244898E+00 -0.4546664E-05  0.0000000E+00 -0.8628444E-01
  0.1326531E+01  0.0000000E+00  0.2244898E+00 -0.4879307E-05  0.0000000E+00 -0.8628611E-01
  0.1367347E+01  0.0000000E+00  0.2244898E+00 -0.5135378E-05  0.0000000E+00 -0.8628788E-01
  0.1408163E+01  0.0000000E+00  0.2244898E+00 -0.5310980E-05  0.0000000E+00 -0.8628973E-01
  0.1448980E+01  0.0000000E+00  0.2244898E+00 -0.5403884E-05  0.0000000E+00 -0.8629163E-01
  0.1489796E+01  0.0000000E+00  0.2244898E+00 -0.5413435E-05  0.0000000E+00 -0.8629354E-01
  0.1530612E+01  0.0000000E+00  0.2244898E+00 -0.5340290E-05  0.0000000E+00 -0.8629544E-01
  0.1571429E+01  0.0000000E+00  0.2244898E+00 -0.5186303E-05  0.0000000E+00 -0.8629730E-01
  0.1612245E+01  0.0000000E+00  0.2244898E+00 -0.4954507E-05  0.0000000E+00 -0.8629909E-01
  0.1653061E+01  0.0000000E+00  0.2244898E+00 -0.4649043E-05  0.0000000E+00 -0.8630079E-01
  0.1693878E+01  0.0000000E+00  0.2244898E+00 -0.4275046E-05  0.0000000E+00 -0.8630236E-01
  0.1734694E+01  0.0000000E+00  0.2244898E+00 -0.3838472E-05  0.0000000E+00 -0.8630379E-01
  0.1775510E+01  0.0000000E+00  0.2244898E+00 -0.3345941E-05  0.0000000E+00 -0.8630506E-01
  0.1816326E+01  0.0000000E+00  0.2244898E+00 -0.2804608E-05  0.0000000E+00 -0.8630614E-01
  0.1857143E+01  0.0000000E+00  0.2244898E+00 -0.2222125E-05  0.0000000E+00 -0.8630703E-01
  0.1897959E+01  0.0000000E+00  0.2244898E+00 -0.1606748E-05  0.0000000E+00 -0.8630770E-01
  0.1938776E+01  0.0000000E+00  0.2244898E+00 -0.9682733E-06  0.0000000E+00 -0.8630816E-01
  0.1989796E+01  0.0000000E+00  0.2244898E+00 -0.3216922E-06  0.0000000E+00 -0.8630838E-01
  0.2040816E-01  0.0000000E+00  0.2653061E+00  0.3360470E-06  0.0000000E+00 -0.8630306E-01
  0.6122449E-01  0.0000000E+00  0.2653061E+00  0.1011817E-05  0.0000000E+00 -0.8630284E-01
  0.1020408E+00  0.0000000E+00  0.2653061E+00  0.1679439E-05  0.0000000E+00 -0.8630239E-01
  0.1428571E+00  0.0000000E+00  0.2653061E+00  0.2319182E-05  0.0000000E+00 -0.8630174E-01
  0.1836735E+00  0.0000000E+00  0.2653061E+00  0.2919155E-05  0.0000000E+00 -0.8630088E-01
  0.2244898E+00  0.0000000E+00  0.2653061E+00  0.3470556E-05  0.0000000E+00 -0.8629982E-01
  0.2653061E+00  0.0000000E+00  0.2653061E+00  0.3964138E-05  0.0000000E+00 -0.8629860E-01
  0.3061225E+00  0.0000000E+00  0.2653061E+00  0.4391338E-05  0.0000000E+00 -0.8629722E-01
  0.3469388E+00  0.0000000E+00  0.2653061E+00  0.4745145E-05  0.0000000E+00 -0.8629572E-01
  0.3877551E+00  0.0000000E+00  0.2653061E+00  0.5018968E-05  0.0000000E+00 -0.8629411E-01
  0.4285714E+00  0.0000000E+00  0.2653061E+00  0.5207072E-05  0.0000000E+00 -0.8629242E-01
  0.4693878E+00  0.0000000E+00  0.2653061E+00  0.5305165E-05  0.0000000E+00 -0.8629068E-01
  0.5102041E+00  0.0000000E+00  0.2653061E+00  0.5310490E-05  0.0000000E+00 -0.8628892E-01
  0.5510204E+00  0.0000000E+00  0.2653061E+00  0.5221772E-05  0.0000000E+00 -0.8628718E-01
  0.5918368E+00  0.0000000E+00  0.2653061E+00  0.5039276E-05  0.0000000E+00 -0.8628548E-01
  0.6326531E+00  0.0000000E+00  0.2653061E+00  0.4764914E-05  0.0000000E+00 -0.8628385E-01
  0.6734694E+00  0.0000000E+00  0.2653061E+00  0.4402297E-05  0.0000000E+00 -0.8628232E-01
  0.7142857E+00  0.0000000E+00  0.2653061E+00  0.3956692E-05  0.0000000E+00 -0.8628093E-01
  0.7551020E+00  0.0000000E+00  0.2653061E+00  0.3434927E-05  0.0000000E+00 -0.8627969E-01
  0.7959183E+00  0.0000000E+00  0.2653061E+00  0.2845323E-05  0.0000000E+00 -0.8627864E-01
  0.8367347E+00  0.0000000E+00  0.2653061E+00  0.2197622E-05  0.0000000E+00 -0.8627779E-01
  0.8775510E+00  0.0000000E+00  0.2653061E+00  0.1502773E-05  0.0000000E+00 -0.8627717E-01
  0.9183673E+00  0.0000000E+00  0.2653061E+00  0.7735050E-06  0.0000000E+00 -0.8627677E-01
  0.9591837E+00  0.0000000E+00  0.2653061E+00  0.2656711E-07  0.0000000E+00 -0.8627663E-01
  0.1000000E+01  0.0000000E+00  0.2653061E+00 -0.7234093E-06  0.0000000E+00 -0.8627673E-01
  0.1040816E+01  0.0000000E+00  0.2653061E+00 -0.1471783E-05  0.0000000E+00 -0.8627708E-01
  0.1081633E+01  0.0000000E+00  0.2653061E+00 -0.2206138E-05  0.0000000E+00 -0.8627767E-01
  0.1122449E+01  0.0000000E+00  0.2653061E+00 -0.2908127E-05  0.0000000E+00 -0.8627851E-01
  0.1163265E+01  0.0000000E+00  0.2653061E+00 -0.3564412E-05  0.0000000E+00 -0.8627956E-01
  0.1204082E+01  0.0000000E+00  0.2653061E+00 -0.4164776E-05  0.0000000E+00 -0.8628083E-01
  0.1244898E+01  0.0000000E+00  0.2653061E+00 -0.4698886E-05  0.0000000E+00 -0.8628228E-01
  0.1285714E+01  0.0000000E+00  0.2653061E+00 -0.5157742E-05  0.0000000E+00 -0.8628389E-01
  0.1326531E+01  0.0000000E+00  0.2653061E+00 -0.5534903E-05  0.0000000E+00 -0.8628565E-01