title = "dataset feddes"
variables = "x", "y", "z", "h_w", "p_w", "s_w", "theta_w", "transp", "evap"
zone t = "Flow variables, solution time =  1.700E+01 days        " i =   50, j =   50, k =    1,  f=point
  0.0000000E+00  0.0000000E+00  0.0000000E+00  0.0000000E+00  0.0000000E+00  0.1000000E+01  0.4280000E+00  0.0000000E+00  0.0000000E+00
  0.4081633E-01  0.0000000E+00  0.0000000E+00  0.0000000E+00  0.0000000E+00  0.1000000E+01  0.4280000E+00  0.0000000E+00  0.0000000E+00
  0.8163265E-01  0.0000000E+00  0.0000000E+00  0.0000000E+00  0.0000000E+00  0.1000000E+01  0.4280000E+00  0.0000000E+00  0.0000000E+00
  0.1224490E+00  0.0000000E+00  0.0000000E+00  0.0000000E+00  0.0000000E+00  0.1000000E+01  0.4280000E+00  0.0000000E+00  0.0000000E+00
  0.1632653E+00  0.0000000E+00  0.0000000E+00  0.0000000E+00  0.0000000E+00  0.1000000E+01  0.4280000E+00  0.0000000E+00  0.0000000E+00
  0.2040816E+00  0.0000000E+00  0.0000000E+00  0.0000000E+00  0.0000000E+00  0.1000000E+01  0.4280000E+00  0.0000000E+00  0.0000000E+00
  0.2448980E+00  0.0000000E+00  0.0000000E+00  0.0000000E+00  0.0000000E+00  0.1000000E+01  0.4280000E+00  0.0000000E+00  0.0000000E+00
  0.2857143E+00  0.0000000E+00  0.0000000E+00  0.0000000E+00  0.0000000E+00  0.1000000E+01  0.4280000E+00  0.0000000E+00  0.0000000E+00
  0.3265306E+00  0.0000000E+00  0.0000000E+00  0.0000000E+00  0.0000000E+00  0.1000000E+01  0.4280000E+00  0.0000000E+00  0.0000000E+00
  0.3673469E+00  0.0000000E+00  0.0000000E+00  0.0000000E+00  0.0000000E+00  0.1000000E+01  0.4280000E+00  0.0000000E+00  0.0000000E+00
  0.4081633E+00  0.0000000E+00  0.0000000E+00  0.0000000E+00  0.0000000E+00  0.1000000E+01  0.4280000E+00  0.0000000E+00  0.0000000E+00
  0.4489796E+00  0.0000000E+00  0.0000000E+00  0.0000000E+00  0.0000000E+00  0.1000000E+01  0.4280000E+00  0.0000000E+00  0.0000000E+00
  0.4897959E+00  0.0000000E+00  0.0000000E+00  0.0000000E+00  0.0000000E+00  0.1000000E+01  0.4280000E+00  0.0000000E+00  0.0000000E+00
  0.5306122E+00  0.0000000E+00  0.0000000E+00  0.0000000E+00  0.0000000E+00  0.1000000E+01  0.4280000E+00  0.0000000E+00  0.0000000E+00
  0.5714286E+00  0.0000000E+00  0.0000000E+00  0.0000000E+00  0.0000000E+00  0.1000000E+01  0.4280000E+00  0.0000000E+00  0.0000000E+00
  0.6122449E+00  0.0000000E+00  0.0000000E+00  0.0000000E+00  0.0000000E+00  0.1000000E+01  0.4280000E+00  0.0000000E+00  0.0000000E+00
  0.6530612E+00  0.0000000E+00  0.0000000E+00  0.0000000E+00  0.0000000E+00  0.1000000E+01  0.4280000E+00  0.0000000E+00  0.0000000E+00
  0.6938776E+00  0.0000000E+00  0.0000000E+00  0.0000000E+00  0.0000000E+00  0.1000000E+01  0.4280000E+00  0.0000000E+00  0.0000000E+00
  0.7346939E+00  0.0000000E+00  0.0000000E+00  0.0000000E+00  0.0000000E+00  0.1000000E+01  0.4280000E+00  0.0000000E+00  0.0000000E+00
  0.7755102E+00  0.0000000E+00  0.0000000E+00  0.0000000E+00  0.0000000E+00  0.1000000E+01  0.4280000E+00  0.0000000E+00  0.0000000E+00
  0.8163265E+00  0.0000000E+00  0.0000000E+00  0.0000000E+00  0.0000000E+00  0.1000000E+01  0.4280000E+00  0.0000000E+00  0.0000000E+00
  0.8571429E+00  0.0000000E+00  0.0000000E+00  0.0000000E+00  0.0000000E+00  0.1000000E+01  0.4280000E+00  0.0000000E+00  0.0000000E+00
  0.8979592E+00  0.0000000E+00  0.0000000E+00  0.0000000E+00  0.0000000E+00  0.1000000E+01  0.4280000E+00  0.0000000E+00  0.0000000E+00
  0.9387755E+00  0.0000000E+00  0.0000000E+00  0.0000000E+00  0.0000000E+00  0.1000000E+01  0.4280000E+00  0.0000000E+00  0.0000000E+00
  0.9795918E+00  0.0000000E+00  0.0000000E+00  0.0000000E+00  0.0000000E+00  0.1000000E+01  0.4280000E+00  0.0000000E+00  0.0000000E+00
  0.1020408E+01  0.0000000E+00  0.0000000E+00  0.0000000E+00  0.0000000E+00  0.1000000E+01  0.4280000E+00  0.0000000E+00  0.0000000E+00
  0.1061224E+01  0.0000000E+00  0.0000000E+00  0.0000000E+00  0.0000000E+00  0.1000000E+01  0.4280000E+00  0.0000000E+00  0.0000000E+00
  0.1102041E+01  0.0000000E+00  0.0000000E+00  0.0000000E+00  0.0000000E+00  0.1000000E+01  0.4280000E+00  0.0000000E+00  0.0000000E+00
  0.1142857E+01  0.0000000E+00  0.0000000E+00  0.0000000E+00  0.0000000E+00  0.1000000E+01  0.4280000E+00  0.0000000E+00  0.0000000E+00
  0.1183673E+01  0.0000000E+00  0.0000000E+00  0.0000000E+00  0.0000000E+00  0.1000000E+01  0.4280000E+00  0.0000000E+00  0.0000000E+00
  0.1224490E+01  0.0000000E+00  0.0000000E+00  0.0000000E+00  0.0000000E+00  0.1000000E+01  0.4280000E+00  0.0000000E+00  0.0000000E+00
  0.1265306E+01  0.0000000E+00  0.0000000E+00  0.0000000E+00  0.0000000E+00  0.1000000E+01  0.4280000E+00  0.0000000E+00  0.0000000E+00
  0.1306122E+01  0.0000000E+00  0.0000000E+00  0.0000000E+00  0.0000000E+00  0.1000000E+01  0.4280000E+00  0.0000000E+00  0.0000000E+00
  0.1346939E+01  0.0000000E+00  0.0000000E+00  0.0000000E+00  0.0000000E+00  0.1000000E+01  0.4280000E+00  0.0000000E+00  0.0000000E+00
  0.1387755E+01  0.0000000E+00  0.0000000E+00  0.0000000E+00  0.0000000E+00  0.1000000E+01  0.4280000E+00  0.0000000E+00  0.0000000E+00
  0.1428571E+01  0.0000000E+00  0.0000000E+00  0.0000000E+00  0.0000000E+00  0.1000000E+01  0.4280000E+00  0.0000000E+00  0.0000000E+00
  0.1469388E+01  0.0000000E+00  0.0000000E+00  0.0000000E+00  0.0000000E+00  0.1000000E+01  0.4280000E+00  0.0000000E+00  0.0000000E+00
  0.1510204E+01  0.0000000E+00  0.0000000E+00  0.0000000E+00  0.0000000E+00  0.1000000E+01  0.4280000E+00  0.0000000E+00  0.0000000E+00
  0.1551020E+01  0.0000000E+00  0.0000000E+00  0.0000000E+00  0.0000000E+00  0.1000000E+01  0.4280000E+00  0.0000000E+00  0.0000000E+00
  0.1591837E+01  0.0000000E+00  0.0000000E+00  0.0000000E+00  0.0000000E+00  0.1000000E+01  0.4280000E+00  0.0000000E+00  0.0000000E+00
  0.1632653E+01  0.0000000E+00  0.0000000E+00  0.0000000E+00  0.0000000E+00  0.1000000E+01  0.4280000E+00  0.0000000E+00  0.0000000E+00
  0.1673469E+01  0.0000000E+00  0.0000000E+00  0.0000000E+00  0.0000000E+00  0.1000000E+01  0.4280000E+00  0.0000000E+00  0.0000000E+00
  0.1714286E+01  0.0000000E+00  0.0000000E+00  0.0000000E+00  0.0000000E+00  0.1000000E+01  0.4280000E+00  0.0000000E+00  0.0000000E+00
  0.1755102E+01  0.0000000E+00  0.0000000E+00  0.0000000E+00  0.0000000E+00  0.1000000E+01  0.4280000E+00  0.0000000E+00  0.0000000E+00
  0.1795918E+01  0.0000000E+00  0.0000000E+00  0.0000000E+00  0.0000000E+00  0.1000000E+01  0.4280000E+00  0.0000000E+00  0.0000000E+00
  0.1836735E+01  0.0000000E+00  0.0000000E+00  0.0000000E+00  0.0000000E+00  0.1000000E+01  0.4280000E+00  0.0000000E+00  0.0000000E+00
  0.1877551E+01  0.0000000E+00  0.0000000E+00  0.0000000E+00  0.0000000E+00  0.1000000E+01  0.4280000E+00  0.0000000E+00  0.0000000E+00
  0.1918367E+01  0.0000000E+00  0.0000000E+00  0.0000000E+00  0.0000000E+00  0.1000000E+01  0.4280000E+00  0.0000000E+00  0.0000000E+00
  0.1959184E+01  0.0000000E+00  0.0000000E+00  0.0000000E+00  0.0000000E+00  0.1000000E+01  0.4280000E+00  0.0000000E+00  0.0000000E+00
  0.2000000E+01  0.0000000E+00  0.0000000E+00  0.0000000E+00  0.0000000E+00  0.1000000E+01  0.4280000E+00  0.0000000E+00  0.0000000E+00
  0.0000000E+00  0.0000000E+00  0.4081633E-01  0.1328511E-01 -0.2753122E-01  0.9977029E+00  0.4270168E+00  0.0000000E+00  0.0000000E+00
  0.4081633E-01  0.0000000E+00  0.4081633E-01  0.1328507E-01 -0.2753126E-01  0.9977029E+00  0.4270168E+00  0.0000000E+00  0.0000000E+00
  0.8163265E-01  0.0000000E+00  0.4081633E-01  0.1328495E-01 -0.2753137E-01  0.9977028E+00  0.4270168E+00  0.0000000E+00  0.0000000E+00
  0.1224490E+00  0.0000000E+00  0.4081633E-01  0.1328476E-01 -0.2753156E-01  0.9977028E+00  0.4270168E+00  0.0000000E+00  0.0000000E+00
  0.1632653E+00  0.0000000E+00  0.4081633E-01  0.1328450E-01 -0.2753183E-01  0.9977028E+00  0.4270168E+00  0.0000000E+00  0.0000000E+00
  0.2040816E+00  0.0000000E+00  0.4081633E-01  0.1328417E-01 -0.2753215E-01  0.9977028E+00  0.4270168E+00  0.0000000E+00  0.0000000E+00
  0.2448980E+00  0.0000000E+00  0.4081633E-01  0.1328378E-01 -0.2753254E-01  0.9977027E+00  0.4270168E+00  0.0000000E+00  0.0000000E+00
  0.2857143E+00  0.0000000E+00  0.4081633E-01  0.1328333E-01 -0.2753299E-01  0.9977027E+00  0.4270167E+00  0.0000000E+00  0.0000000E+00
  0.3265306E+00  0.0000000E+00  0.4081633E-01  0.1328284E-01 -0.2753349E-01  0.9977026E+00  0.4270167E+00  0.0000000E+00  0.0000000E+00
  0.3673469E+00  0.0000000E+00  0.4081633E-01  0.1328230E-01 -0.2753402E-01  0.9977025E+00  0.4270167E+00  0.0000000E+00  0.0000000E+00
  0.4081633E+00  0.0000000E+00  0.4081633E-01  0.1328173E-01 -0.2753459E-01  0.9977025E+00  0.4270167E+00  0.0000000E+00  0.0000000E+00
  0.4489796E+00  0.0000000E+00  0.4081633E-01  0.1328114E-01 -0.2753518E-01  0.9977024E+00  0.4270166E+00  0.0000000E+00  0.0000000E+00
  0.4897959E+00  0.0000000E+00  0.4081633E-01  0.1328054E-01 -0.2753579E-01  0.9977023E+00  0.4270166E+00  0.0000000E+00  0.0000000E+00
  0.5306122E+00  0.0000000E+00  0.4081633E-01  0.1327993E-01 -0.2753639E-01  0.9977023E+00  0.4270166E+00  0.0000000E+00  0.0000000E+00
  0.5714286E+00  0.0000000E+00  0.4081633E-01  0.1327934E-01 -0.2753699E-01  0.9977022E+00  0.4270165E+00  0.0000000E+00  0.0000000E+00
  0.6122449E+00  0.0000000E+00  0.4081633E-01  0.1327876E-01 -0.2753757E-01  0.9977021E+00  0.4270165E+00  0.0000000E+00  0.0000000E+00
  0.6530612E+00  0.0000000E+00  0.4081633E-01  0.1327820E-01 -0.2753812E-01  0.9977021E+00  0.4270165E+00  0.0000000E+00  0.0000000E+00
  0.6938776E+00  0.0000000E+00  0.4081633E-01  0.1327769E-01 -0.2753864E-01  0.9977020E+00  0.4270165E+00  0.0000000E+00  0.0000000E+00
  0.7346939E+00  0.0000000E+00  0.4081633E-01  0.1327722E-01 -0.2753910E-01  0.9977020E+00  0.4270164E+00  0.0000000E+00  0.0000000E+00
  0.7755102E+00  0.0000000E+00  0.4081633E-01  0.1327681E-01 -0.2753951E-01  0.9977019E+00  0.4270164E+00  0.0000000E+00  0.0000000E+00
  0.8163265E+00  0.0000000E+00  0.4081633E-01  0.1327647E-01 -0.2753986E-01  0.9977019E+00  0.4270164E+00  0.0000000E+00  0.0000000E+00
  0.8571429E+00  0.0000000E+00  0.4081633E-01  0.1327619E-01 -0.2754014E-01  0.9977018E+00  0.4270164E+00  0.0000000E+00  0.0000000E+00
  0.8979592E+00  0.0000000E+00  0.4081633E-01  0.1327598E-01 -0.2754034E-01  0.9977018E+00  0.4270164E+00  0.0000000E+00  0.0000000E+00
  0.9387755E+00  0.0000000E+00  0.4081633E-01  0.1327586E-01 -0.2754047E-01  0.9977018E+00  0.4270164E+00  0.0000000E+00  0.0000000E+00
  0.9795918E+00  0.0000000E+00  0.4081633E-01  0.1327582E-01 -0.2754051E-01  0.9977018E+00  0.4270164E+00  0.0000000E+00  0.0000000E+00
  0.1020408E+01  0.0000000E+00  0.4081633E-01  0.1327586E-01 -0.2754047E-01  0.9977018E+00  0.4270164E+00  0.0000000E+00  0.0000000E+00
  0.1061224E+01  0.0000000E+00  0.4081633E-01  0.1327598E-01 -0.2754035E-01  0.9977018E+00  0.4270164E+00  0.0000000E+00  0.0000000E+00
  0.1102041E+01  0.0000000E+00  0.4081633E-01  0.1327618E-01 -0.2754014E-01  0.9977018E+00  0.4270164E+00  0.0000000E+00  0.0000000E+00
  0.1142857E+01  0.0000000E+00  0.4081633E-01  0.1327646E-01 -0.2753986E-01  0.9977019E+00  0.4270164E+00  0.0000000E+00  0.0000000E+00
  0.1183673E+01  0.0000000E+00  0.4081633E-01  0.1327682E-01 -0.2753951E-01  0.9977019E+00  0.4270164E+00  0.0000000E+00  0.0000000E+00
  0.1224490E+01  0.0000000E+00  0.4081633E-01  0.1327724E-01 -0.2753909E-01  0.9977020E+00  0.4270164E+00  0.0000000E+00  0.0000000E+00
  0.1265306E+01  0.0000000E+00  0.4081633E-01  0.1327772E-01 -0.2753861E-01  0.9977020E+00  0.4270165E+00  0.0000000E+00  0.0000000E+00
  0.1306122E+01  0.0000000E+00  0.4081633E-01  0.1327825E-01 -0.2753807E-01  0.9977021E+00  0.4270165E+00  0.0000000E+00  0.0000000E+00
  0.1346939E+01  0.0000000E+00  0.4081633E-01  0.1327883E-01 -0.2753749E-01  0.9977021E+00  0.4270165E+00  0.0000000E+00  0.0000000E+00
  0.1387755E+01  0.0000000E+00  0.4081633E-01  0.1327945E-01 -0.2753688E-01  0.9977022E+00  0.4270165E+00  0.0000000E+00  0.0000000E+00
  0.1428571E+01  0.0000000E+00  0.4081633E-01  0.1328008E-01 -0.2753624E-01  0.9977023E+00  0.4270166E+00  0.0000000E+00  0.0000000E+00
  0.1469388E+01  0.0000000E+00  0.4081633E-01  0.1328073E-01 -0.2753559E-01  0.9977024E+00  0.4270166E+00  0.0000000E+00  0.0000000E+00
  0.1510204E+01  0.0000000E+00  0.4081633E-01  0.1328139E-01 -0.2753494E-01  0.9977024E+00  0.4270166E+00  0.0000000E+00  0.0000000E+00
  0.1551020E+01  0.0000000E+00  0.4081633E-01  0.1328204E-01 -0.2753429E-01  0.9977025E+00  0.4270167E+00  0.0000000E+00  0.0000000E+00
  0.1591837E+01  0.0000000E+00  0.4081633E-01  0.1328267E-01 -0.2753366E-01  0.9977026E+00  0.4270167E+00  0.0000000E+00  0.0000000E+00
  0.1632653E+01  0.0000000E+00  0.4081633E-01  0.1328327E-01 -0.2753305E-01  0.9977026E+00  0.4270167E+00  0.0000000E+00  0.0000000E+00
  0.1673469E+01  0.0000000E+00  0.4081633E-01  0.1328384E-01 -0.2753248E-01  0.9977027E+00  0.4270168E+00  0.0000000E+00  0.0000000E+00
  0.1714286E+01  0.0000000E+00  0.4081633E-01  0.1328437E-01 -0.2753196E-01  0.9977028E+00  0.4270168E+00  0.0000000E+00  0.0000000E+00
  0.1755102E+01  0.0000000E+00  0.4081633E-01  0.1328484E-01 -0.2753149E-01  0.9977028E+00  0.4270168E+00  0.0000000E+00  0.0000000E+00
  0.1795918E+01  0.0000000E+00  0.4081633E-01  0.1328525E-01 -0.2753108E-01  0.9977029E+00  0.4270168E+00  0.0000000E+00  0.0000000E+00
  0.1836735E+01  0.0000000E+00  0.4081633E-01  0.1328560E-01 -0.2753073E-01  0.9977029E+00  0.4270168E+00  0.0000000E+00  0.0000000E+00
  0.1877551E+01  0.0000000E+00  0.4081633E-01  0.1328587E-01 -0.2753046E-01  0.9977029E+00  0.4270169E+00  0.0000000E+00  0.0000000E+00
  0.1918367E+01  0.0000000E+00  0.4081633E-01  0.1328607E-01 -0.2753026E-01  0.9977030E+00  0.4270169E+00  0.0000000E+00  0.0000000E+00
  0.1959184E+01  0.0000000E+00  0.4081633E-01  0.1328619E-01 -0.2753014E-01  0.9977030E+00  0.4270169E+00  0.0000000E+00  0.0000000E+00
  0.2000000E+01  0.0000000E+00  0.4081633E-01  0.1328623E-01 -0.2753010E-01  0.9977030E+00  0.4270169E+00  0.0000000E+00  0.0000000E+00
  0.0000000E+00  0.0000000E+00  0.8163265E-01  0.2973802E-01 -0.5189463E-01  0.9945343E+00  0.4256607E+00  0.0000000E+00  0.0000000E+00
  0.4081633E-01  0.0000000E+00  0.8163265E-01  0.2973794E-01 -0.5189471E-01  0.9945343E+00  0.4256607E+00  0.0000000E+00  0.0000000E+00
  0.8163265E-01  0.0000000E+00  0.8163265E-01  0.2973769E-01 -0.5189496E-01  0.9945343E+00  0.4256607E+00  0.0000000E+00  0.0000000E+00
  0.1224490E+00  0.0000000E+00  0.8163265E-01  0.2973728E-01 -0.5189537E-01  0.9945342E+00  0.4256607E+00  0.0000000E+00  0.0000000E+00
  0.1632653E+00  0.0000000E+00  0.8163265E-01  0.2973672E-01 -0.5189593E-01  0.9945342E+00  0.4256606E+00  0.0000000E+00  0.0000000E+00
  0.2040816E+00  0.0000000E+00  0.8163265E-01  0.2973601E-01 -0.5189664E-01  0.9945340E+00  0.4256606E+00  0.0000000E+00  0.0000000E+00
  0.2448980E+00  0.0000000E+00  0.8163265E-01  0.2973517E-01 -0.5189749E-01  0.9945339E+00  0.4256605E+00  0.0000000E+00  0.0000000E+00
  0.2857143E+00  0.0000000E+00  0.8163265E-01  0.2973420E-01 -0.5189845E-01  0.9945338E+00  0.4256605E+00  0.0000000E+00  0.0000000E+00
  0.3265306E+00  0.0000000E+00  0.8163265E-01  0.2973313E-01 -0.5189952E-01  0.9945336E+00  0.4256604E+00  0.0000000E+00  0.0000000E+00
  0.3673469E+00  0.0000000E+00  0.8163265E-01  0.2973198E-01 -0.5190068E-01  0.9945335E+00  0.4256603E+00  0.0000000E+00  0.0000000E+00
  0.4081633E+00  0.0000000E+00  0.8163265E-01  0.2973075E-01 -0.5190190E-01  0.9945333E+00  0.4256603E+00  0.0000000E+00  0.0000000E+00
  0.4489796E+00  0.0000000E+00  0.8163265E-01  0.2972948E-01 -0.5190318E-01  0.9945331E+00  0.4256602E+00  0.0000000E+00  0.0000000E+00
  0.4897959E+00  0.0000000E+00  0.8163265E-01  0.2972818E-01 -0.5190448E-01  0.9945329E+00  0.4256601E+00  0.0000000E+00  0.0000000E+00
  0.5306122E+00  0.0000000E+00  0.8163265E-01  0.2972687E-01 -0.5190579E-01  0.9945327E+00  0.4256600E+00  0.0000000E+00  0.0000000E+00
  0.5714286E+00  0.0000000E+00  0.8163265E-01  0.2972558E-01 -0.5190708E-01  0.9945326E+00  0.4256599E+00  0.0000000E+00  0.0000000E+00
  0.6122449E+00  0.0000000E+00  0.8163265E-01  0.2972433E-01 -0.5190833E-01  0.9945324E+00  0.4256599E+00  0.0000000E+00  0.0000000E+00
  0.6530612E+00  0.0000000E+00  0.8163265E-01  0.2972314E-01 -0.5190952E-01  0.9945322E+00  0.4256598E+00  0.0000000E+00  0.0000000E+00
  0.6938776E+00  0.0000000E+00  0.8163265E-01  0.2972203E-01 -0.5191063E-01  0.9945320E+00  0.4256597E+00  0.0000000E+00  0.0000000E+00
  0.7346939E+00  0.0000000E+00  0.8163265E-01  0.2972102E-01 -0.5191163E-01  0.9945319E+00  0.4256597E+00  0.0000000E+00  0.0000000E+00
  0.7755102E+00  0.0000000E+00  0.8163265E-01  0.2972013E-01 -0.5191252E-01  0.9945318E+00  0.4256596E+00  0.0000000E+00  0.0000000E+00
  0.8163265E+00  0.0000000E+00  0.8163265E-01  0.2971938E-01 -0.5191327E-01  0.9945317E+00  0.4256596E+00  0.0000000E+00  0.0000000E+00
  0.8571429E+00  0.0000000E+00  0.8163265E-01  0.2971878E-01 -0.5191387E-01  0.9945316E+00  0.4256595E+00  0.0000000E+00  0.0000000E+00
  0.8979592E+00  0.0000000E+00  0.8163265E-01  0.2971834E-01 -0.5191431E-01  0.9945315E+00  0.4256595E+00  0.0000000E+00  0.0000000E+00
  0.9387755E+00  0.0000000E+00  0.8163265E-01  0.2971807E-01 -0.5191458E-01  0.9945315E+00  0.4256595E+00  0.0000000E+00  0.0000000E+00
  0.9795918E+00  0.0000000E+00  0.8163265E-01  0.2971798E-01 -0.5191467E-01  0.9945315E+00  0.4256595E+00  0.0000000E+00  0.0000000E+00
  0.1020408E+01  0.0000000E+00  0.8163265E-01  0.2971807E-01 -0.5191459E-01  0.9945315E+00  0.4256595E+00  0.0000000E+00  0.0000000E+00
  0.1061224E+01  0.0000000E+00  0.8163265E-01  0.2971833E-01 -0.5191432E-01  0.9945315E+00  0.4256595E+00  0.0000000E+00  0.0000000E+00
  0.1102041E+01  0.0000000E+00  0.8163265E-01  0.2971877E-01 -0.5191389E-01  0.9945316E+00  0.4256595E+00  0.0000000E+00  0.0000000E+00
  0.1142857E+01  0.0000000E+00  0.8163265E-01  0.2971937E-01 -0.5191328E-01  0.9945317E+00  0.4256596E+00  0.0000000E+00  0.0000000E+00
  0.1183673E+01  0.0000000E+00  0.8163265E-01  0.2972014E-01 -0.5191252E-01  0.9945318E+00  0.4256596E+00  0.0000000E+00  0.0000000E+00
  0.1224490E+01  0.0000000E+00  0.8163265E-01  0.2972104E-01 -0.5191161E-01  0.9945319E+00  0.4256597E+00  0.0000000E+00  0.0000000E+00
  0.1265306E+01  0.0000000E+00  0.8163265E-01  0.2972208E-01 -0.5191057E-01  0.9945321E+00  0.4256597E+00  0.0000000E+00  0.0000000E+00
  0.1306122E+01  0.0000000E+00  0.8163265E-01  0.2972324E-01 -0.5190942E-01  0.9945322E+00  0.4256598E+00  0.0000000E+00  0.0000000E+00
  0.1346939E+01  0.0000000E+00  0.8163265E-01  0.2972448E-01 -0.5190817E-01  0.9945324E+00  0.4256599E+00  0.0000000E+00  0.0000000E+00
  0.1387755E+01  0.0000000E+00  0.8163265E-01  0.2972581E-01 -0.5190685E-01  0.9945326E+00  0.4256599E+00  0.0000000E+00  0.0000000E+00
  0.1428571E+01  0.0000000E+00  0.8163265E-01  0.2972718E-01 -0.5190547E-01  0.9945328E+00  0.4256600E+00  0.0000000E+00  0.0000000E+00
  0.1469388E+01  0.0000000E+00  0.8163265E-01  0.2972858E-01 -0.5190407E-01  0.9945330E+00  0.4256601E+00  0.0000000E+00  0.0000000E+00
  0.1510204E+01  0.0000000E+00  0.8163265E-01  0.2973000E-01 -0.5190266E-01  0.9945332E+00  0.4256602E+00  0.0000000E+00  0.0000000E+00
  0.1551020E+01  0.0000000E+00  0.8163265E-01  0.2973139E-01 -0.5190126E-01  0.9945334E+00  0.4256603E+00  0.0000000E+00  0.0000000E+00
  0.1591837E+01  0.0000000E+00  0.8163265E-01  0.2973276E-01 -0.5189990E-01  0.9945336E+00  0.4256604E+00  0.0000000E+00  0.0000000E+00
  0.1632653E+01  0.0000000E+00  0.8163265E-01  0.2973406E-01 -0.5189859E-01  0.9945338E+00  0.4256605E+00  0.0000000E+00  0.0000000E+00
  0.1673469E+01  0.0000000E+00  0.8163265E-01  0.2973529E-01 -0.5189737E-01  0.9945339E+00  0.4256605E+00  0.0000000E+00  0.0000000E+00
  0.1714286E+01  0.0000000E+00  0.8163265E-01  0.2973642E-01 -0.5189624E-01  0.9945341E+00  0.4256606E+00  0.0000000E+00  0.0000000E+00
  0.1755102E+01  0.0000000E+00  0.8163265E-01  0.2973743E-01 -0.5189522E-01  0.9945343E+00  0.4256607E+00  0.0000000E+00  0.0000000E+00
  0.1795918E+01  0.0000000E+00  0.8163265E-01  0.2973832E-01 -0.5189433E-01  0.9945344E+00  0.4256607E+00  0.0000000E+00  0.0000000E+00
  0.1836735E+01  0.0000000E+00  0.8163265E-01  0.2973906E-01 -0.5189359E-01  0.9945345E+00  0.4256608E+00  0.0000000E+00  0.0000000E+00
  0.1877551E+01  0.0000000E+00  0.8163265E-01  0.2973965E-01 -0.5189300E-01  0.9945346E+00  0.4256608E+00  0.0000000E+00  0.0000000E+00
  0.1918367E+01  0.0000000E+00  0.8163265E-01  0.2974008E-01 -0.5189257E-01  0.9945346E+00  0.4256608E+00  0.0000000E+00  0.0000000E+00
  0.1959184E+01  0.0000000E+00  0.8163265E-01  0.2974034E-01 -0.5189231E-01  0.9945347E+00  0.4256608E+00  0.0000000E+00  0.0000000E+00
  0.2000000E+01  0.0000000E+00  0.8163265E-01  0.2974043E-01 -0.5189222E-01  0.9945347E+00  0.4256608E+00  0.0000000E+00  0.0000000E+00
  0.0000000E+00  0.0000000E+00  0.1224490E+00  0.4891134E-01 -0.7353764E-01  0.9912313E+00  0.4242470E+00  0.0000000E+00  0.0000000E+00
  0.4081633E-01  0.0000000E+00  0.1224490E+00  0.4891121E-01 -0.7353777E-01  0.9912312E+00  0.4242470E+00  0.0000000E+00  0.0000000E+00
  0.8163265E-01  0.0000000E+00  0.1224490E+00  0.4891081E-01 -0.7353817E-01  0.9912312E+00  0.4242469E+00  0.0000000E+00  0.0000000E+00
  0.1224490E+00  0.0000000E+00  0.1224490E+00  0.4891016E-01 -0.7353882E-01  0.9912311E+00  0.4242469E+00  0.0000000E+00  0.0000000E+00
  0.1632653E+00  0.0000000E+00  0.1224490E+00  0.4890927E-01 -0.7353971E-01  0.9912309E+00  0.4242468E+00  0.0000000E+00  0.0000000E+00
  0.2040816E+00  0.0000000E+00  0.1224490E+00  0.4890814E-01 -0.7354084E-01  0.9912307E+00  0.4242468E+00  0.0000000E+00  0.0000000E+00
  0.2448980E+00  0.0000000E+00  0.1224490E+00  0.4890680E-01 -0.7354218E-01  0.9912305E+00  0.4242467E+00  0.0000000E+00  0.0000000E+00
  0.2857143E+00  0.0000000E+00  0.1224490E+00  0.4890527E-01 -0.7354371E-01  0.9912303E+00  0.4242466E+00  0.0000000E+00  0.0000000E+00
  0.3265306E+00  0.0000000E+00  0.1224490E+00  0.4890357E-01 -0.7354541E-01  0.9912300E+00  0.4242464E+00  0.0000000E+00  0.0000000E+00
  0.3673469E+00  0.0000000E+00  0.1224490E+00  0.4890173E-01 -0.7354725E-01  0.9912297E+00  0.4242463E+00  0.0000000E+00  0.0000000E+00
  0.4081633E+00  0.0000000E+00  0.1224490E+00  0.4889978E-01 -0.7354920E-01  0.9912294E+00  0.4242462E+00  0.0000000E+00  0.0000000E+00
  0.4489796E+00  0.0000000E+00  0.1224490E+00  0.4889775E-01 -0.7355123E-01  0.9912291E+00  0.4242460E+00  0.0000000E+00  0.0000000E+00
  0.4897959E+00  0.0000000E+00  0.1224490E+00  0.4889568E-01 -0.7355330E-01  0.9912287E+00  0.4242459E+00  0.0000000E+00  0.0000000E+00
  0.5306122E+00  0.0000000E+00  0.1224490E+00  0.4889360E-01 -0.7355538E-01  0.9912284E+00  0.4242458E+00  0.0000000E+00  0.0000000E+00
  0.5714286E+00  0.0000000E+00  0.1224490E+00  0.4889154E-01 -0.7355744E-01  0.9912281E+00  0.4242456E+00  0.0000000E+00  0.0000000E+00
  0.6122449E+00  0.0000000E+00  0.1224490E+00  0.4888955E-01 -0.7355943E-01  0.9912277E+00  0.4242455E+00  0.0000000E+00  0.0000000E+00
  0.6530612E+00  0.0000000E+00  0.1224490E+00  0.4888765E-01 -0.7356133E-01  0.9912274E+00  0.4242453E+00  0.0000000E+00  0.0000000E+00
  0.6938776E+00  0.0000000E+00  0.1224490E+00  0.4888589E-01 -0.7356309E-01  0.9912272E+00  0.4242452E+00  0.0000000E+00  0.0000000E+00
  0.7346939E+00  0.0000000E+00  0.1224490E+00  0.4888428E-01 -0.7356470E-01  0.9912269E+00  0.4242451E+00  0.0000000E+00  0.0000000E+00
  0.7755102E+00  0.0000000E+00  0.1224490E+00  0.4888287E-01 -0.7356611E-01  0.9912267E+00  0.4242450E+00  0.0000000E+00  0.0000000E+00
  0.8163265E+00  0.0000000E+00  0.1224490E+00  0.4888167E-01 -0.7356731E-01  0.9912265E+00  0.4242449E+00  0.0000000E+00  0.0000000E+00
  0.8571429E+00  0.0000000E+00  0.1224490E+00  0.4888071E-01 -0.7356826E-01  0.9912263E+00  0.4242449E+00  0.0000000E+00  0.0000000E+00
  0.8979592E+00  0.0000000E+00  0.1224490E+00  0.4888001E-01 -0.7356897E-01  0.9912262E+00  0.4242448E+00  0.0000000E+00  0.0000000E+00
  0.9387755E+00  0.0000000E+00  0.1224490E+00  0.4887959E-01 -0.7356939E-01  0.9912261E+00  0.4242448E+00  0.0000000E+00  0.0000000E+00
  0.9795918E+00  0.0000000E+00  0.1224490E+00  0.4887944E-01 -0.7356954E-01  0.9912261E+00  0.4242448E+00  0.0000000E+00  0.0000000E+00
  0.1020408E+01  0.0000000E+00  0.1224490E+00  0.4887957E-01 -0.7356941E-01  0.9912261E+00  0.4242448E+00  0.0000000E+00  0.0000000E+00
  0.1061224E+01  0.0000000E+00  0.1224490E+00  0.4887999E-01 -0.7356899E-01  0.9912262E+00  0.4242448E+00  0.0000000E+00  0.0000000E+00
  0.1102041E+01  0.0000000E+00  0.1224490E+00  0.4888069E-01 -0.7356829E-01  0.9912263E+00  0.4242449E+00  0.0000000E+00  0.0000000E+00
  0.1142857E+01  0.0000000E+00  0.1224490E+00  0.4888165E-01 -0.7356733E-01  0.9912265E+00  0.4242449E+00  0.0000000E+00  0.0000000E+00
  0.1183673E+01  0.0000000E+00  0.1224490E+00  0.4888286E-01 -0.7356612E-01  0.9912267E+00  0.4242450E+00  0.0000000E+00  0.0000000E+00
  0.1224490E+01  0.0000000E+00  0.1224490E+00  0.4888431E-01 -0.7356467E-01  0.9912269E+00  0.4242451E+00  0.0000000E+00  0.0000000E+00
  0.1265306E+01  0.0000000E+00  0.1224490E+00  0.4888596E-01 -0.7356302E-01  0.9912272E+00  0.4242452E+00  0.0000000E+00  0.0000000E+00
  0.1306122E+01  0.0000000E+00  0.1224490E+00  0.4888780E-01 -0.7356118E-01  0.9912275E+00  0.4242454E+00  0.0000000E+00  0.0000000E+00
  0.1346939E+01  0.0000000E+00  0.1224490E+00  0.4888978E-01 -0.7355920E-01  0.9912278E+00  0.4242455E+00  0.0000000E+00  0.0000000E+00
  0.1387755E+01  0.0000000E+00  0.1224490E+00  0.4889188E-01 -0.7355710E-01  0.9912281E+00  0.4242456E+00  0.0000000E+00  0.0000000E+00
  0.1428571E+01  0.0000000E+00  0.1224490E+00  0.4889407E-01 -0.7355491E-01  0.9912285E+00  0.4242458E+00  0.0000000E+00  0.0000000E+00
  0.1469388E+01  0.0000000E+00  0.1224490E+00  0.4889630E-01 -0.7355268E-01  0.9912288E+00  0.4242459E+00  0.0000000E+00  0.0000000E+00
  0.1510204E+01  0.0000000E+00  0.1224490E+00  0.4889855E-01 -0.7355043E-01  0.9912292E+00  0.4242461E+00  0.0000000E+00  0.0000000E+00
  0.1551020E+01  0.0000000E+00  0.1224490E+00  0.4890077E-01 -0.7354821E-01  0.9912295E+00  0.4242462E+00  0.0000000E+00  0.0000000E+00
  0.1591837E+01  0.0000000E+00  0.1224490E+00  0.4890293E-01 -0.7354605E-01  0.9912299E+00  0.4242464E+00  0.0000000E+00  0.0000000E+00
  0.1632653E+01  0.0000000E+00  0.1224490E+00  0.4890501E-01 -0.7354397E-01  0.9912302E+00  0.4242465E+00  0.0000000E+00  0.0000000E+00
  0.1673469E+01  0.0000000E+00  0.1224490E+00  0.4890696E-01 -0.7354202E-01  0.9912305E+00  0.4242467E+00  0.0000000E+00  0.0000000E+00
  0.1714286E+01  0.0000000E+00  0.1224490E+00  0.4890875E-01 -0.7354023E-01  0.9912308E+00  0.4242468E+00  0.0000000E+00  0.0000000E+00
  0.1755102E+01  0.0000000E+00  0.1224490E+00  0.4891037E-01 -0.7353861E-01  0.9912311E+00  0.4242469E+00  0.0000000E+00  0.0000000E+00
  0.1795918E+01  0.0000000E+00  0.1224490E+00  0.4891177E-01 -0.7353721E-01  0.9912313E+00  0.4242470E+00  0.0000000E+00  0.0000000E+00
  0.1836735E+01  0.0000000E+00  0.1224490E+00  0.4891296E-01 -0.7353602E-01  0.9912315E+00  0.4242471E+00  0.0000000E+00  0.0000000E+00
  0.1877551E+01  0.0000000E+00  0.1224490E+00  0.4891389E-01 -0.7353508E-01  0.9912317E+00  0.4242472E+00  0.0000000E+00  0.0000000E+00
  0.1918367E+01  0.0000000E+00  0.1224490E+00  0.4891458E-01 -0.7353440E-01  0.9912318E+00  0.4242472E+00  0.0000000E+00  0.0000000E+00
  0.1959184E+01  0.0000000E+00  0.1224490E+00  0.4891499E-01 -0.7353399E-01  0.9912318E+00  0.4242472E+00  0.0000000E+00  0.0000000E+00
  0.2000000E+01  0.0000000E+00  0.1224490E+00  0.4891513E-01 -0.7353385E-01  0.9912319E+00  0.4242472E+00  0.0000000E+00  0.0000000E+00
  0.0000000E+00  0.0000000E+00  0.1632653E+00  0.7052795E-01 -0.9273736E-01  0.9880207E+00  0.4228729E+00  0.0000000E+00  0.0000000E+00
  0.4081633E-01  0.0000000E+00  0.1632653E+00  0.7052776E-01 -0.9273754E-01  0.9880207E+00  0.4228729E+00  0.0000000E+00  0.0000000E+00
  0.8163265E-01  0.0000000E+00  0.1632653E+00  0.7052721E-01 -0.9273809E-01  0.9880206E+00  0.4228728E+00  0.0000000E+00  0.0000000E+00
  0.1224490E+00  0.0000000E+00  0.1632653E+00  0.7052631E-01 -0.9273900E-01  0.9880205E+00  0.4228728E+00  0.0000000E+00  0.0000000E+00
  0.1632653E+00  0.0000000E+00  0.1632653E+00  0.7052505E-01 -0.9274025E-01  0.9880202E+00  0.4228727E+00  0.0000000E+00  0.0000000E+00
  0.2040816E+00  0.0000000E+00  0.1632653E+00  0.7052348E-01 -0.9274183E-01  0.9880200E+00  0.4228725E+00  0.0000000E+00  0.0000000E+00
  0.2448980E+00  0.0000000E+00  0.1632653E+00  0.7052160E-01 -0.9274370E-01  0.9880197E+00  0.4228724E+00  0.0000000E+00  0.0000000E+00
  0.2857143E+00  0.0000000E+00  0.1632653E+00  0.7051946E-01 -0.9274585E-01  0.9880193E+00  0.4228723E+00  0.0000000E+00  0.0000000E+00
  0.3265306E+00  0.0000000E+00  0.1632653E+00  0.7051708E-01 -0.9274823E-01  0.9880189E+00  0.4228721E+00  0.0000000E+00  0.0000000E+00
  0.3673469E+00  0.0000000E+00  0.1632653E+00  0.7051451E-01 -0.9275080E-01  0.9880184E+00  0.4228719E+00  0.0000000E+00  0.0000000E+00
  0.4081633E+00  0.0000000E+00  0.1632653E+00  0.7051178E-01 -0.9275353E-01  0.9880180E+00  0.4228717E+00  0.0000000E+00  0.0000000E+00
  0.4489796E+00  0.0000000E+00  0.1632653E+00  0.7050894E-01 -0.9275637E-01  0.9880175E+00  0.4228715E+00  0.0000000E+00  0.0000000E+00
  0.4897959E+00  0.0000000E+00  0.1632653E+00  0.7050604E-01 -0.9275927E-01  0.9880170E+00  0.4228713E+00  0.0000000E+00  0.0000000E+00
  0.5306122E+00  0.0000000E+00  0.1632653E+00  0.7050313E-01 -0.9276218E-01  0.9880165E+00  0.4228710E+00  0.0000000E+00  0.0000000E+00
  0.5714286E+00  0.0000000E+00  0.1632653E+00  0.7050025E-01 -0.9276506E-01  0.9880160E+00  0.4228708E+00  0.0000000E+00  0.0000000E+00
  0.6122449E+00  0.0000000E+00  0.1632653E+00  0.7049746E-01 -0.9276785E-01  0.9880155E+00  0.4228706E+00  0.0000000E+00  0.0000000E+00
  0.6530612E+00  0.0000000E+00  0.1632653E+00  0.7049480E-01 -0.9277050E-01  0.9880150E+00  0.4228704E+00  0.0000000E+00  0.0000000E+00
  0.6938776E+00  0.0000000E+00  0.1632653E+00  0.7049233E-01 -0.9277298E-01  0.9880146E+00  0.4228702E+00  0.0000000E+00  0.0000000E+00
  0.7346939E+00  0.0000000E+00  0.1632653E+00  0.7049008E-01 -0.9277523E-01  0.9880142E+00  0.4228701E+00  0.0000000E+00  0.0000000E+00