title = "dataset feddes"
variables = "x", "y", "z", "vx", "vy", "vz"
zone t = "velocities, solution time =  5.000E+00 days        " i =   49, j =   49, k =    1,  f=point
  0.2040816E-01  0.0000000E+00  0.2040816E-01 -0.4535447E-09  0.0000000E+00 -0.8154418E-01
  0.6122449E-01  0.0000000E+00  0.2040816E-01 -0.5600184E-09  0.0000000E+00 -0.8154418E-01
  0.1020408E+00  0.0000000E+00  0.2040816E-01 -0.7140573E-09  0.0000000E+00 -0.8154418E-01
  0.1428571E+00  0.0000000E+00  0.2040816E-01 -0.1265806E-08  0.0000000E+00 -0.8154418E-01
  0.1836735E+00  0.0000000E+00  0.2040816E-01 -0.5718585E-09  0.0000000E+00 -0.8154418E-01
  0.2244898E+00  0.0000000E+00  0.2040816E-01 -0.1723565E-09  0.0000000E+00 -0.8154419E-01
  0.2653061E+00  0.0000000E+00  0.2040816E-01 -0.1689693E-08  0.0000000E+00 -0.8154419E-01
  0.3061225E+00  0.0000000E+00  0.2040816E-01 -0.1494846E-08  0.0000000E+00 -0.8154419E-01
  0.3469388E+00  0.0000000E+00  0.2040816E-01  0.3227174E-09  0.0000000E+00 -0.8154419E-01
  0.3877551E+00  0.0000000E+00  0.2040816E-01  0.4771823E-09  0.0000000E+00 -0.8154419E-01
  0.4285714E+00  0.0000000E+00  0.2040816E-01 -0.1839590E-09  0.0000000E+00 -0.8154419E-01
  0.4693878E+00  0.0000000E+00  0.2040816E-01  0.1664693E-09  0.0000000E+00 -0.8154419E-01
  0.5102041E+00  0.0000000E+00  0.2040816E-01  0.7992661E-09  0.0000000E+00 -0.8154419E-01
  0.5510204E+00  0.0000000E+00  0.2040816E-01  0.9426554E-09  0.0000000E+00 -0.8154419E-01
  0.5918368E+00  0.0000000E+00  0.2040816E-01  0.7209004E-09  0.0000000E+00 -0.8154419E-01
  0.6326531E+00  0.0000000E+00  0.2040816E-01  0.4852347E-09  0.0000000E+00 -0.8154418E-01
  0.6734694E+00  0.0000000E+00  0.2040816E-01  0.3345075E-09  0.0000000E+00 -0.8154418E-01
  0.7142857E+00  0.0000000E+00  0.2040816E-01  0.1946808E-09  0.0000000E+00 -0.8154418E-01
  0.7551020E+00  0.0000000E+00  0.2040816E-01  0.2909328E-10  0.0000000E+00 -0.8154418E-01
  0.7959183E+00  0.0000000E+00  0.2040816E-01 -0.1081428E-09  0.0000000E+00 -0.8154418E-01
  0.8367347E+00  0.0000000E+00  0.2040816E-01 -0.1191385E-09  0.0000000E+00 -0.8154418E-01
  0.8775510E+00  0.0000000E+00  0.2040816E-01  0.8386054E-10  0.0000000E+00 -0.8154418E-01
  0.9183673E+00  0.0000000E+00  0.2040816E-01  0.5366598E-09  0.0000000E+00 -0.8154418E-01
  0.9591837E+00  0.0000000E+00  0.2040816E-01  0.1191173E-08  0.0000000E+00 -0.8154418E-01
  0.1000000E+01  0.0000000E+00  0.2040816E-01  0.1825062E-08  0.0000000E+00 -0.8154418E-01
  0.1040816E+01  0.0000000E+00  0.2040816E-01  0.1598766E-08  0.0000000E+00 -0.8154417E-01
  0.1081633E+01  0.0000000E+00  0.2040816E-01 -0.2062532E-08  0.0000000E+00 -0.8154417E-01
  0.1122449E+01  0.0000000E+00  0.2040816E-01 -0.1100958E-08  0.0000000E+00 -0.8154418E-01
  0.1163265E+01  0.0000000E+00  0.2040816E-01  0.1012838E-09  0.0000000E+00 -0.8154418E-01
  0.1204082E+01  0.0000000E+00  0.2040816E-01  0.9935980E-09  0.0000000E+00 -0.8154418E-01
  0.1244898E+01  0.0000000E+00  0.2040816E-01  0.1061111E-08  0.0000000E+00 -0.8154417E-01
  0.1285714E+01  0.0000000E+00  0.2040816E-01  0.7407659E-09  0.0000000E+00 -0.8154417E-01
  0.1326531E+01  0.0000000E+00  0.2040816E-01  0.8953814E-09  0.0000000E+00 -0.8154417E-01
  0.1367347E+01  0.0000000E+00  0.2040816E-01  0.1717972E-08  0.0000000E+00 -0.8154417E-01
  0.1408163E+01  0.0000000E+00  0.2040816E-01  0.5464757E-09  0.0000000E+00 -0.8154417E-01
  0.1448980E+01  0.0000000E+00  0.2040816E-01 -0.1223007E-08  0.0000000E+00 -0.8154417E-01
  0.1489796E+01  0.0000000E+00  0.2040816E-01 -0.8439391E-09  0.0000000E+00 -0.8154417E-01
  0.1530612E+01  0.0000000E+00  0.2040816E-01 -0.3545392E-09  0.0000000E+00 -0.8154417E-01
  0.1571429E+01  0.0000000E+00  0.2040816E-01 -0.8795294E-09  0.0000000E+00 -0.8154417E-01
  0.1612245E+01  0.0000000E+00  0.2040816E-01 -0.1497641E-08  0.0000000E+00 -0.8154417E-01
  0.1653061E+01  0.0000000E+00  0.2040816E-01 -0.1535839E-08  0.0000000E+00 -0.8154418E-01
  0.1693878E+01  0.0000000E+00  0.2040816E-01 -0.1206378E-08  0.0000000E+00 -0.8154418E-01
  0.1734694E+01  0.0000000E+00  0.2040816E-01 -0.9179428E-09  0.0000000E+00 -0.8154418E-01
  0.1775510E+01  0.0000000E+00  0.2040816E-01 -0.7065655E-09  0.0000000E+00 -0.8154418E-01
  0.1816326E+01  0.0000000E+00  0.2040816E-01 -0.6294391E-09  0.0000000E+00 -0.8154419E-01
  0.1857143E+01  0.0000000E+00  0.2040816E-01 -0.4604368E-09  0.0000000E+00 -0.8154419E-01
  0.1897959E+01  0.0000000E+00  0.2040816E-01 -0.2014634E-09  0.0000000E+00 -0.8154419E-01
  0.1938776E+01  0.0000000E+00  0.2040816E-01  0.9405504E-10  0.0000000E+00 -0.8154419E-01
  0.1989796E+01  0.0000000E+00  0.2040816E-01 -0.4003336E-09  0.0000000E+00 -0.8154419E-01
  0.2040816E-01  0.0000000E+00  0.6122449E-01 -0.1142458E-08  0.0000000E+00 -0.8155160E-01
  0.6122449E-01  0.0000000E+00  0.6122449E-01 -0.1967927E-08  0.0000000E+00 -0.8155160E-01
  0.1020408E+00  0.0000000E+00  0.6122449E-01 -0.1889280E-08  0.0000000E+00 -0.8155160E-01
  0.1428571E+00  0.0000000E+00  0.6122449E-01 -0.2838311E-08  0.0000000E+00 -0.8155161E-01
  0.1836735E+00  0.0000000E+00  0.6122449E-01 -0.2453558E-08  0.0000000E+00 -0.8155161E-01
  0.2244898E+00  0.0000000E+00  0.6122449E-01 -0.1087272E-08  0.0000000E+00 -0.8155161E-01
  0.2653061E+00  0.0000000E+00  0.6122449E-01 -0.3982655E-08  0.0000000E+00 -0.8155161E-01
  0.3061225E+00  0.0000000E+00  0.6122449E-01 -0.3541641E-08  0.0000000E+00 -0.8155161E-01
  0.3469388E+00  0.0000000E+00  0.6122449E-01  0.6121674E-09  0.0000000E+00 -0.8155162E-01
  0.3877551E+00  0.0000000E+00  0.6122449E-01  0.1054855E-08  0.0000000E+00 -0.8155162E-01
  0.4285714E+00  0.0000000E+00  0.6122449E-01 -0.3835177E-09  0.0000000E+00 -0.8155161E-01
  0.4693878E+00  0.0000000E+00  0.6122449E-01  0.5333934E-09  0.0000000E+00 -0.8155161E-01
  0.5102041E+00  0.0000000E+00  0.6122449E-01  0.2099441E-08  0.0000000E+00 -0.8155161E-01
  0.5510204E+00  0.0000000E+00  0.6122449E-01  0.2451703E-08  0.0000000E+00 -0.8155161E-01
  0.5918368E+00  0.0000000E+00  0.6122449E-01  0.1901227E-08  0.0000000E+00 -0.8155161E-01
  0.6326531E+00  0.0000000E+00  0.6122449E-01  0.1302966E-08  0.0000000E+00 -0.8155161E-01
  0.6734694E+00  0.0000000E+00  0.6122449E-01  0.8881840E-09  0.0000000E+00 -0.8155161E-01
  0.7142857E+00  0.0000000E+00  0.6122449E-01  0.4731395E-09  0.0000000E+00 -0.8155161E-01
  0.7551020E+00  0.0000000E+00  0.6122449E-01 -0.1330578E-10  0.0000000E+00 -0.8155161E-01
  0.7959183E+00  0.0000000E+00  0.6122449E-01 -0.4020936E-09  0.0000000E+00 -0.8155161E-01
  0.8367347E+00  0.0000000E+00  0.6122449E-01 -0.4202749E-09  0.0000000E+00 -0.8155161E-01
  0.8775510E+00  0.0000000E+00  0.6122449E-01  0.1653302E-09  0.0000000E+00 -0.8155161E-01
  0.9183673E+00  0.0000000E+00  0.6122449E-01  0.1436814E-08  0.0000000E+00 -0.8155161E-01
  0.9591837E+00  0.0000000E+00  0.6122449E-01  0.3253522E-08  0.0000000E+00 -0.8155161E-01
  0.1000000E+01  0.0000000E+00  0.6122449E-01  0.5212806E-08  0.0000000E+00 -0.8155160E-01
  0.1040816E+01  0.0000000E+00  0.6122449E-01  0.1717876E-08  0.0000000E+00 -0.8155160E-01
  0.1081633E+01  0.0000000E+00  0.6122449E-01 -0.3416520E-08  0.0000000E+00 -0.8155160E-01
  0.1122449E+01  0.0000000E+00  0.6122449E-01 -0.2474937E-08  0.0000000E+00 -0.8155160E-01
  0.1163265E+01  0.0000000E+00  0.6122449E-01  0.2630360E-09  0.0000000E+00 -0.8155160E-01
  0.1204082E+01  0.0000000E+00  0.6122449E-01  0.2365638E-08  0.0000000E+00 -0.8155160E-01
  0.1244898E+01  0.0000000E+00  0.6122449E-01  0.3141883E-08  0.0000000E+00 -0.8155160E-01
  0.1285714E+01  0.0000000E+00  0.6122449E-01  0.2973837E-08  0.0000000E+00 -0.8155160E-01
  0.1326531E+01  0.0000000E+00  0.6122449E-01  0.1985277E-08  0.0000000E+00 -0.8155159E-01
  0.1367347E+01  0.0000000E+00  0.6122449E-01  0.3526940E-08  0.0000000E+00 -0.8155159E-01
  0.1408163E+01  0.0000000E+00  0.6122449E-01  0.1591287E-08  0.0000000E+00 -0.8155159E-01
  0.1448980E+01  0.0000000E+00  0.6122449E-01 -0.2411420E-08  0.0000000E+00 -0.8155159E-01
  0.1489796E+01  0.0000000E+00  0.6122449E-01 -0.2142283E-08  0.0000000E+00 -0.8155159E-01
  0.1530612E+01  0.0000000E+00  0.6122449E-01 -0.1347674E-08  0.0000000E+00 -0.8155159E-01
  0.1571429E+01  0.0000000E+00  0.6122449E-01 -0.2519977E-08  0.0000000E+00 -0.8155160E-01
  0.1612245E+01  0.0000000E+00  0.6122449E-01 -0.3874297E-08  0.0000000E+00 -0.8155160E-01
  0.1653061E+01  0.0000000E+00  0.6122449E-01 -0.3977763E-08  0.0000000E+00 -0.8155160E-01
  0.1693878E+01  0.0000000E+00  0.6122449E-01 -0.3221854E-08  0.0000000E+00 -0.8155160E-01
  0.1734694E+01  0.0000000E+00  0.6122449E-01 -0.2419751E-08  0.0000000E+00 -0.8155161E-01
  0.1775510E+01  0.0000000E+00  0.6122449E-01 -0.1921027E-08  0.0000000E+00 -0.8155161E-01
  0.1816326E+01  0.0000000E+00  0.6122449E-01 -0.1603802E-08  0.0000000E+00 -0.8155161E-01
  0.1857143E+01  0.0000000E+00  0.6122449E-01 -0.1225568E-08  0.0000000E+00 -0.8155161E-01
  0.1897959E+01  0.0000000E+00  0.6122449E-01 -0.5554127E-09  0.0000000E+00 -0.8155161E-01
  0.1938776E+01  0.0000000E+00  0.6122449E-01  0.7313518E-10  0.0000000E+00 -0.8155161E-01
  0.1989796E+01  0.0000000E+00  0.6122449E-01 -0.4938748E-09  0.0000000E+00 -0.8155161E-01
  0.2040816E-01  0.0000000E+00  0.1020408E+00 -0.1246254E-08  0.0000000E+00 -0.8157184E-01
  0.6122449E-01  0.0000000E+00  0.1020408E+00 -0.3528605E-08  0.0000000E+00 -0.8157184E-01
  0.1020408E+00  0.0000000E+00  0.1020408E+00 -0.3354808E-08  0.0000000E+00 -0.8157185E-01
  0.1428571E+00  0.0000000E+00  0.1020408E+00 -0.3774975E-08  0.0000000E+00 -0.8157185E-01
  0.1836735E+00  0.0000000E+00  0.1020408E+00 -0.4196006E-08  0.0000000E+00 -0.8157185E-01
  0.2244898E+00  0.0000000E+00  0.1020408E+00 -0.2142988E-08  0.0000000E+00 -0.8157185E-01
  0.2653061E+00  0.0000000E+00  0.1020408E+00 -0.5030264E-08  0.0000000E+00 -0.8157186E-01
  0.3061225E+00  0.0000000E+00  0.1020408E+00 -0.4767190E-08  0.0000000E+00 -0.8157186E-01
  0.3469388E+00  0.0000000E+00  0.1020408E+00  0.2841841E-09  0.0000000E+00 -0.8157186E-01
  0.3877551E+00  0.0000000E+00  0.1020408E+00  0.1049955E-08  0.0000000E+00 -0.8157186E-01
  0.4285714E+00  0.0000000E+00  0.1020408E+00 -0.3202178E-09  0.0000000E+00 -0.8157186E-01
  0.4693878E+00  0.0000000E+00  0.1020408E+00  0.9248555E-09  0.0000000E+00 -0.8157186E-01
  0.5102041E+00  0.0000000E+00  0.1020408E+00  0.2942495E-08  0.0000000E+00 -0.8157186E-01
  0.5510204E+00  0.0000000E+00  0.1020408E+00  0.3455696E-08  0.0000000E+00 -0.8157186E-01
  0.5918368E+00  0.0000000E+00  0.1020408E+00  0.2760691E-08  0.0000000E+00 -0.8157185E-01
  0.6326531E+00  0.0000000E+00  0.1020408E+00  0.1911718E-08  0.0000000E+00 -0.8157185E-01
  0.6734694E+00  0.0000000E+00  0.1020408E+00  0.1242443E-08  0.0000000E+00 -0.8157185E-01
  0.7142857E+00  0.0000000E+00  0.1020408E+00  0.5534578E-09  0.0000000E+00 -0.8157185E-01
  0.7551020E+00  0.0000000E+00  0.1020408E+00 -0.2250782E-09  0.0000000E+00 -0.8157185E-01
  0.7959183E+00  0.0000000E+00  0.1020408E+00 -0.8372454E-09  0.0000000E+00 -0.8157185E-01
  0.8367347E+00  0.0000000E+00  0.1020408E+00 -0.8770132E-09  0.0000000E+00 -0.8157185E-01
  0.8775510E+00  0.0000000E+00  0.1020408E+00  0.9113563E-11  0.0000000E+00 -0.8157185E-01
  0.9183673E+00  0.0000000E+00  0.1020408E+00  0.1932246E-08  0.0000000E+00 -0.8157185E-01
  0.9591837E+00  0.0000000E+00  0.1020408E+00  0.4577253E-08  0.0000000E+00 -0.8157185E-01
  0.1000000E+01  0.0000000E+00  0.1020408E+00  0.6743561E-08  0.0000000E+00 -0.8157185E-01
  0.1040816E+01  0.0000000E+00  0.1020408E+00  0.5972048E-09  0.0000000E+00 -0.8157185E-01
  0.1081633E+01  0.0000000E+00  0.1020408E+00 -0.1501002E-08  0.0000000E+00 -0.8157185E-01
  0.1122449E+01  0.0000000E+00  0.1020408E+00 -0.3193718E-08  0.0000000E+00 -0.8157185E-01
  0.1163265E+01  0.0000000E+00  0.1020408E+00  0.7329815E-09  0.0000000E+00 -0.8157185E-01
  0.1204082E+01  0.0000000E+00  0.1020408E+00  0.3323944E-08  0.0000000E+00 -0.8157185E-01
  0.1244898E+01  0.0000000E+00  0.1020408E+00  0.4390263E-08  0.0000000E+00 -0.8157184E-01
  0.1285714E+01  0.0000000E+00  0.1020408E+00  0.5400685E-08  0.0000000E+00 -0.8157184E-01
  0.1326531E+01  0.0000000E+00  0.1020408E+00  0.2615806E-08  0.0000000E+00 -0.8157184E-01
  0.1367347E+01  0.0000000E+00  0.1020408E+00  0.3895558E-08  0.0000000E+00 -0.8157184E-01
  0.1408163E+01  0.0000000E+00  0.1020408E+00  0.2474143E-08  0.0000000E+00 -0.8157184E-01
  0.1448980E+01  0.0000000E+00  0.1020408E+00 -0.2330277E-08  0.0000000E+00 -0.8157184E-01
  0.1489796E+01  0.0000000E+00  0.1020408E+00 -0.2989987E-08  0.0000000E+00 -0.8157184E-01
  0.1530612E+01  0.0000000E+00  0.1020408E+00 -0.2553610E-08  0.0000000E+00 -0.8157184E-01
  0.1571429E+01  0.0000000E+00  0.1020408E+00 -0.3852416E-08  0.0000000E+00 -0.8157184E-01
  0.1612245E+01  0.0000000E+00  0.1020408E+00 -0.5318262E-08  0.0000000E+00 -0.8157184E-01
  0.1653061E+01  0.0000000E+00  0.1020408E+00 -0.5462681E-08  0.0000000E+00 -0.8157185E-01
  0.1693878E+01  0.0000000E+00  0.1020408E+00 -0.4619181E-08  0.0000000E+00 -0.8157185E-01
  0.1734694E+01  0.0000000E+00  0.1020408E+00 -0.3509449E-08  0.0000000E+00 -0.8157185E-01
  0.1775510E+01  0.0000000E+00  0.1020408E+00 -0.2756887E-08  0.0000000E+00 -0.8157185E-01
  0.1816326E+01  0.0000000E+00  0.1020408E+00 -0.1956515E-08  0.0000000E+00 -0.8157185E-01
  0.1857143E+01  0.0000000E+00  0.1020408E+00 -0.1399202E-08  0.0000000E+00 -0.8157185E-01
  0.1897959E+01  0.0000000E+00  0.1020408E+00 -0.8128258E-09  0.0000000E+00 -0.8157185E-01
  0.1938776E+01  0.0000000E+00  0.1020408E+00 -0.8106645E-09  0.0000000E+00 -0.8157186E-01
  0.1989796E+01  0.0000000E+00  0.1020408E+00 -0.2480256E-09  0.0000000E+00 -0.8157186E-01
  0.2040816E-01  0.0000000E+00  0.1428571E+00 -0.1420673E-08  0.0000000E+00 -0.8160809E-01
  0.6122449E-01  0.0000000E+00  0.1428571E+00 -0.4696414E-08  0.0000000E+00 -0.8160809E-01
  0.1020408E+00  0.0000000E+00  0.1428571E+00 -0.5148475E-08  0.0000000E+00 -0.8160810E-01
  0.1428571E+00  0.0000000E+00  0.1428571E+00 -0.5350542E-08  0.0000000E+00 -0.8160810E-01
  0.1836735E+00  0.0000000E+00  0.1428571E+00 -0.4960343E-08  0.0000000E+00 -0.8160810E-01
  0.2244898E+00  0.0000000E+00  0.1428571E+00 -0.2790677E-08  0.0000000E+00 -0.8160810E-01
  0.2653061E+00  0.0000000E+00  0.1428571E+00 -0.5966112E-08  0.0000000E+00 -0.8160810E-01
  0.3061225E+00  0.0000000E+00  0.1428571E+00 -0.6054701E-08  0.0000000E+00 -0.8160811E-01
  0.3469388E+00  0.0000000E+00  0.1428571E+00 -0.2718640E-09  0.0000000E+00 -0.8160811E-01
  0.3877551E+00  0.0000000E+00  0.1428571E+00  0.9329268E-09  0.0000000E+00 -0.8160811E-01
  0.4285714E+00  0.0000000E+00  0.1428571E+00 -0.5792495E-10  0.0000000E+00 -0.8160811E-01
  0.4693878E+00  0.0000000E+00  0.1428571E+00  0.1291030E-08  0.0000000E+00 -0.8160811E-01
  0.5102041E+00  0.0000000E+00  0.1428571E+00  0.3470506E-08  0.0000000E+00 -0.8160811E-01
  0.5510204E+00  0.0000000E+00  0.1428571E+00  0.4172673E-08  0.0000000E+00 -0.8160811E-01
  0.5918368E+00  0.0000000E+00  0.1428571E+00  0.3485797E-08  0.0000000E+00 -0.8160810E-01
  0.6326531E+00  0.0000000E+00  0.1428571E+00  0.2439963E-08  0.0000000E+00 -0.8160810E-01
  0.6734694E+00  0.0000000E+00  0.1428571E+00  0.1484343E-08  0.0000000E+00 -0.8160810E-01
  0.7142857E+00  0.0000000E+00  0.1428571E+00  0.5075516E-09  0.0000000E+00 -0.8160810E-01
  0.7551020E+00  0.0000000E+00  0.1428571E+00 -0.5365833E-09  0.0000000E+00 -0.8160810E-01
  0.7959183E+00  0.0000000E+00  0.1428571E+00 -0.1365578E-08  0.0000000E+00 -0.8160810E-01
  0.8367347E+00  0.0000000E+00  0.1428571E+00 -0.1503770E-08  0.0000000E+00 -0.8160810E-01
  0.8775510E+00  0.0000000E+00  0.1428571E+00 -0.4854337E-09  0.0000000E+00 -0.8160810E-01
  0.9183673E+00  0.0000000E+00  0.1428571E+00  0.1875279E-08  0.0000000E+00 -0.8160810E-01
  0.9591837E+00  0.0000000E+00  0.1428571E+00  0.5046229E-08  0.0000000E+00 -0.8160810E-01
  0.1000000E+01  0.0000000E+00  0.1428571E+00  0.6143447E-08  0.0000000E+00 -0.8160810E-01
  0.1040816E+01  0.0000000E+00  0.1428571E+00  0.3820239E-08  0.0000000E+00 -0.8160810E-01
  0.1081633E+01  0.0000000E+00  0.1428571E+00 -0.4436798E-09  0.0000000E+00 -0.8160810E-01
  0.1122449E+01  0.0000000E+00  0.1428571E+00 -0.3914856E-08  0.0000000E+00 -0.8160810E-01
  0.1163265E+01  0.0000000E+00  0.1428571E+00  0.1227365E-08  0.0000000E+00 -0.8160810E-01
  0.1204082E+01  0.0000000E+00  0.1428571E+00  0.4501960E-08  0.0000000E+00 -0.8160810E-01
  0.1244898E+01  0.0000000E+00  0.1428571E+00  0.5024356E-08  0.0000000E+00 -0.8160809E-01
  0.1285714E+01  0.0000000E+00  0.1428571E+00  0.6959831E-08  0.0000000E+00 -0.8160809E-01
  0.1326531E+01  0.0000000E+00  0.1428571E+00  0.3463379E-08  0.0000000E+00 -0.8160809E-01
  0.1367347E+01  0.0000000E+00  0.1428571E+00  0.4423452E-08  0.0000000E+00 -0.8160809E-01
  0.1408163E+01  0.0000000E+00  0.1428571E+00  0.3102988E-08  0.0000000E+00 -0.8160809E-01
  0.1448980E+01  0.0000000E+00  0.1428571E+00 -0.2227267E-08  0.0000000E+00 -0.8160809E-01
  0.1489796E+01  0.0000000E+00  0.1428571E+00 -0.3625620E-08  0.0000000E+00 -0.8160809E-01
  0.1530612E+01  0.0000000E+00  0.1428571E+00 -0.3532155E-08  0.0000000E+00 -0.8160809E-01
  0.1571429E+01  0.0000000E+00  0.1428571E+00 -0.4870033E-08  0.0000000E+00 -0.8160809E-01
  0.1612245E+01  0.0000000E+00  0.1428571E+00 -0.6298818E-08  0.0000000E+00 -0.8160809E-01
  0.1653061E+01  0.0000000E+00  0.1428571E+00 -0.6408241E-08  0.0000000E+00 -0.8160810E-01
  0.1693878E+01  0.0000000E+00  0.1428571E+00 -0.5544220E-08  0.0000000E+00 -0.8160810E-01
  0.1734694E+01  0.0000000E+00  0.1428571E+00 -0.4386467E-08  0.0000000E+00 -0.8160810E-01
  0.1775510E+01  0.0000000E+00  0.1428571E+00 -0.3183693E-08  0.0000000E+00 -0.8160810E-01
  0.1816326E+01  0.0000000E+00  0.1428571E+00 -0.2017815E-08  0.0000000E+00 -0.8160810E-01
  0.1857143E+01  0.0000000E+00  0.1428571E+00 -0.8401098E-09  0.0000000E+00 -0.8160810E-01
  0.1897959E+01  0.0000000E+00  0.1428571E+00 -0.8208037E-09  0.0000000E+00 -0.8160810E-01
  0.1938776E+01  0.0000000E+00  0.1428571E+00 -0.2266481E-08  0.0000000E+00 -0.8160810E-01
  0.1989796E+01  0.0000000E+00  0.1428571E+00 -0.1030639E-08  0.0000000E+00 -0.8160810E-01
  0.2040816E-01  0.0000000E+00  0.1836735E+00 -0.2163393E-08  0.0000000E+00 -0.8166236E-01
  0.6122449E-01  0.0000000E+00  0.1836735E+00 -0.5548436E-08  0.0000000E+00 -0.8166236E-01
  0.1020408E+00  0.0000000E+00  0.1836735E+00 -0.6773689E-08  0.0000000E+00 -0.8166236E-01
  0.1428571E+00  0.0000000E+00  0.1836735E+00 -0.6677061E-08  0.0000000E+00 -0.8166237E-01
  0.1836735E+00  0.0000000E+00  0.1836735E+00 -0.6395532E-08  0.0000000E+00 -0.8166237E-01
  0.2244898E+00  0.0000000E+00  0.1836735E+00 -0.3450226E-08  0.0000000E+00 -0.8166237E-01
  0.2653061E+00  0.0000000E+00  0.1836735E+00 -0.6844076E-08  0.0000000E+00 -0.8166237E-01
  0.3061225E+00  0.0000000E+00  0.1836735E+00 -0.6857374E-08  0.0000000E+00 -0.8166238E-01
  0.3469388E+00  0.0000000E+00  0.1836735E+00 -0.8608604E-09  0.0000000E+00 -0.8166238E-01
  0.3877551E+00  0.0000000E+00  0.1836735E+00  0.7668513E-09  0.0000000E+00 -0.8166238E-01
  0.4285714E+00  0.0000000E+00  0.1836735E+00  0.2681278E-09  0.0000000E+00 -0.8166238E-01
  0.4693878E+00  0.0000000E+00  0.1836735E+00  0.1692719E-08  0.0000000E+00 -0.8166238E-01
  0.5102041E+00  0.0000000E+00  0.1836735E+00  0.3849632E-08  0.0000000E+00 -0.8166238E-01
  0.5510204E+00  0.0000000E+00  0.1836735E+00  0.4655989E-08  0.0000000E+00 -0.8166238E-01
  0.5918368E+00  0.0000000E+00  0.1836735E+00  0.4047436E-08  0.0000000E+00 -0.8166237E-01
  0.6326531E+00  0.0000000E+00  0.1836735E+00  0.2898393E-08  0.0000000E+00 -0.8166237E-01
  0.6734694E+00  0.0000000E+00  0.1836735E+00  0.1689568E-08  0.0000000E+00 -0.8166237E-01
  0.7142857E+00  0.0000000E+00  0.1836735E+00  0.4247149E-09  0.0000000E+00 -0.8166237E-01
  0.7551020E+00  0.0000000E+00  0.1836735E+00 -0.8745115E-09  0.0000000E+00 -0.8166237E-01
  0.7959183E+00  0.0000000E+00  0.1836735E+00 -0.1915207E-08  0.0000000E+00 -0.8166237E-01
  0.8367347E+00  0.0000000E+00  0.1836735E+00 -0.2228052E-08  0.0000000E+00 -0.8166237E-01
  0.8775510E+00  0.0000000E+00  0.1836735E+00 -0.1294334E-08  0.0000000E+00 -0.8166238E-01
  0.9183673E+00  0.0000000E+00  0.1836735E+00  0.1283250E-08  0.0000000E+00 -0.8166238E-01
  0.9591837E+00  0.0000000E+00  0.1836735E+00  0.4994464E-08  0.0000000E+00 -0.8166238E-01
  0.1000000E+01  0.0000000E+00  0.1836735E+00  0.6380732E-08  0.0000000E+00 -0.8166237E-01
  0.1040816E+01  0.0000000E+00  0.1836735E+00  0.7349188E-08  0.0000000E+00 -0.8166237E-01
  0.1081633E+01  0.0000000E+00  0.1836735E+00 -0.4559543E-09  0.0000000E+00 -0.8166237E-01
  0.1122449E+01  0.0000000E+00  0.1836735E+00 -0.3860860E-08  0.0000000E+00 -0.8166237E-01
  0.1163265E+01  0.0000000E+00  0.1836735E+00  0.1420376E-08  0.0000000E+00 -0.8166237E-01
  0.1204082E+01  0.0000000E+00  0.1836735E+00  0.5432840E-08  0.0000000E+00 -0.8166237E-01
  0.1244898E+01  0.0000000E+00  0.1836735E+00  0.6047062E-08  0.0000000E+00 -0.8166237E-01
  0.1285714E+01  0.0000000E+00  0.1836735E+00  0.7992207E-08  0.0000000E+00 -0.8166236E-01
  0.1326531E+01  0.0000000E+00  0.1836735E+00  0.4210469E-08  0.0000000E+00 -0.8166236E-01
  0.1367347E+01  0.0000000E+00  0.1836735E+00  0.4883332E-08  0.0000000E+00 -0.8166236E-01
  0.1408163E+01  0.0000000E+00  0.1836735E+00  0.3466705E-08  0.0000000E+00 -0.8166236E-01
  0.1448980E+01  0.0000000E+00  0.1836735E+00 -0.2143077E-08  0.0000000E+00 -0.8166236E-01
  0.1489796E+01  0.0000000E+00  0.1836735E+00 -0.3990077E-08  0.0000000E+00 -0.8166236E-01
  0.1530612E+01  0.0000000E+00  0.1836735E+00 -0.4176927E-08  0.0000000E+00 -0.8166236E-01
  0.1571429E+01  0.0000000E+00  0.1836735E+00 -0.5626841E-08  0.0000000E+00 -0.8166236E-01
  0.1612245E+01  0.0000000E+00  0.1836735E+00 -0.7054004E-08  0.0000000E+00 -0.8166236E-01
  0.1653061E+01  0.0000000E+00  0.1836735E+00 -0.7001295E-08  0.0000000E+00 -0.8166237E-01
  0.1693878E+01  0.0000000E+00  0.1836735E+00 -0.5978466E-08  0.0000000E+00 -0.8166237E-01
  0.1734694E+01  0.0000000E+00  0.1836735E+00 -0.4883766E-08  0.0000000E+00 -0.8166237E-01
  0.1775510E+01  0.0000000E+00  0.1836735E+00 -0.3505836E-08  0.0000000E+00 -0.8166237E-01
  0.1816326E+01  0.0000000E+00  0.1836735E+00 -0.2142548E-08  0.0000000E+00 -0.8166237E-01
  0.1857143E+01  0.0000000E+00  0.1836735E+00 -0.3062233E-09  0.0000000E+00 -0.8166237E-01
  0.1897959E+01  0.0000000E+00  0.1836735E+00 -0.4035548E-09  0.0000000E+00 -0.8166237E-01
  0.1938776E+01  0.0000000E+00  0.1836735E+00 -0.2317884E-08  0.0000000E+00 -0.8166237E-01
  0.1989796E+01  0.0000000E+00  0.1836735E+00 -0.2571708E-08  0.0000000E+00 -0.8166237E-01
  0.2040816E-01  0.0000000E+00  0.2244898E+00 -0.3139276E-08  0.0000000E+00 -0.8173575E-01
  0.6122449E-01  0.0000000E+00  0.2244898E+00 -0.6807621E-08  0.0000000E+00 -0.8173575E-01
  0.1020408E+00  0.0000000E+00  0.2244898E+00 -0.7861884E-08  0.0000000E+00 -0.8173575E-01
  0.1428571E+00  0.0000000E+00  0.2244898E+00 -0.7724876E-08  0.0000000E+00 -0.8173576E-01
  0.1836735E+00  0.0000000E+00  0.2244898E+00 -0.8245322E-08  0.0000000E+00 -0.8173576E-01
  0.2244898E+00  0.0000000E+00  0.2244898E+00 -0.4351467E-08  0.0000000E+00 -0.8173576E-01
  0.2653061E+00  0.0000000E+00  0.2244898E+00 -0.7540782E-08  0.0000000E+00 -0.8173576E-01
  0.3061225E+00  0.0000000E+00  0.2244898E+00 -0.7113327E-08  0.0000000E+00 -0.8173577E-01
  0.3469388E+00  0.0000000E+00  0.2244898E+00 -0.1392447E-08  0.0000000E+00 -0.8173577E-01
  0.3877551E+00  0.0000000E+00  0.2244898E+00  0.4265235E-09  0.0000000E+00 -0.8173577E-01
  0.4285714E+00  0.0000000E+00  0.2244898E+00  0.4309462E-09  0.0000000E+00 -0.8173577E-01
  0.4693878E+00  0.0000000E+00  0.2244898E+00  0.2096645E-08  0.0000000E+00 -0.8173577E-01
  0.5102041E+00  0.0000000E+00  0.2244898E+00  0.4257607E-08  0.0000000E+00 -0.8173577E-01
  0.5510204E+00  0.0000000E+00  0.2244898E+00  0.5064792E-08  0.0000000E+00 -0.8173576E-01
  0.5918368E+00  0.0000000E+00  0.2244898E+00  0.4476648E-08  0.0000000E+00 -0.8173576E-01
  0.6326531E+00  0.0000000E+00  0.2244898E+00  0.3264583E-08  0.0000000E+00 -0.8173576E-01
  0.6734694E+00  0.0000000E+00  0.2244898E+00  0.1870818E-08  0.0000000E+00 -0.8173576E-01
  0.7142857E+00  0.0000000E+00  0.2244898E+00  0.3564353E-09  0.0000000E+00 -0.8173576E-01
  0.7551020E+00  0.0000000E+00  0.2244898E+00 -0.1182732E-08  0.0000000E+00 -0.8173576E-01
  0.7959183E+00  0.0000000E+00  0.2244898E+00 -0.2416936E-08  0.0000000E+00 -0.8173576E-01
  0.8367347E+00  0.0000000E+00  0.2244898E+00 -0.2907050E-08  0.0000000E+00 -0.8173576E-01
  0.8775510E+00  0.0000000E+00  0.2244898E+00 -0.2193306E-08  0.0000000E+00 -0.8173576E-01
  0.9183673E+00  0.0000000E+00  0.2244898E+00  0.4178586E-09  0.0000000E+00 -0.8173577E-01
  0.9591837E+00  0.0000000E+00  0.2244898E+00  0.4706237E-08  0.0000000E+00 -0.8173577E-01
  0.1000000E+01  0.0000000E+00  0.2244898E+00  0.7721932E-08  0.0000000E+00 -0.8173576E-01
  0.1040816E+01  0.0000000E+00  0.2244898E+00  0.8138011E-08  0.0000000E+00 -0.8173576E-01
  0.1081633E+01  0.0000000E+00  0.2244898E+00 -0.4742548E-10  0.0000000E+00 -0.8173576E-01
  0.1122449E+01  0.0000000E+00  0.2244898E+00 -0.2777006E-08  0.0000000E+00 -0.8173576E-01
  0.1163265E+01  0.0000000E+00  0.2244898E+00  0.1753711E-08  0.0000000E+00 -0.8173576E-01
  0.1204082E+01  0.0000000E+00  0.2244898E+00  0.5929310E-08  0.0000000E+00 -0.8173576E-01
  0.1244898E+01  0.0000000E+00  0.2244898E+00  0.7077512E-08  0.0000000E+00 -0.8173576E-01
  0.1285714E+01  0.0000000E+00  0.2244898E+00  0.8678698E-08  0.0000000E+00 -0.8173575E-01
  0.1326531E+01  0.0000000E+00  0.2244898E+00  0.4871620E-08  0.0000000E+00 -0.8173575E-01
  0.1367347E+01  0.0000000E+00  0.2244898E+00  0.5355197E-08  0.0000000E+00 -0.8173575E-01
  0.1408163E+01  0.0000000E+00  0.2244898E+00  0.3690430E-08  0.0000000E+00 -0.8173575E-01
  0.1448980E+01  0.0000000E+00  0.2244898E+00 -0.2123490E-08  0.0000000E+00 -0.8173575E-01
  0.1489796E+01  0.0000000E+00  0.2244898E+00 -0.4217055E-08  0.0000000E+00 -0.8173575E-01
  0.1530612E+01  0.0000000E+00  0.2244898E+00 -0.4528512E-08  0.0000000E+00 -0.8173575E-01
  0.1571429E+01  0.0000000E+00  0.2244898E+00 -0.6061207E-08  0.0000000E+00 -0.8173575E-01
  0.1612245E+01  0.0000000E+00  0.2244898E+00 -0.7634443E-08  0.0000000E+00 -0.8173575E-01
  0.1653061E+01  0.0000000E+00  0.2244898E+00 -0.7506653E-08  0.0000000E+00 -0.8173575E-01
  0.1693878E+01  0.0000000E+00  0.2244898E+00 -0.6140580E-08  0.0000000E+00 -0.8173576E-01
  0.1734694E+01  0.0000000E+00  0.2244898E+00 -0.4716225E-08  0.0000000E+00 -0.8173576E-01
  0.1775510E+01  0.0000000E+00  0.2244898E+00 -0.3595249E-08  0.0000000E+00 -0.8173576E-01
  0.1816326E+01  0.0000000E+00  0.2244898E+00 -0.2429998E-08  0.0000000E+00 -0.8173576E-01
  0.1857143E+01  0.0000000E+00  0.2244898E+00 -0.1409122E-09  0.0000000E+00 -0.8173576E-01
  0.1897959E+01  0.0000000E+00  0.2244898E+00 -0.2059810E-09  0.0000000E+00 -0.8173576E-01
  0.1938776E+01  0.0000000E+00  0.2244898E+00 -0.6760353E-09  0.0000000E+00 -0.8173576E-01
  0.1989796E+01  0.0000000E+00  0.2244898E+00 -0.2784315E-08  0.0000000E+00 -0.8173576E-01
  0.2040816E-01  0.0000000E+00  0.2653061E+00 -0.4157695E-08  0.0000000E+00 -0.8182857E-01
  0.6122449E-01  0.0000000E+00  0.2653061E+00 -0.8711765E-08  0.0000000E+00 -0.8182857E-01
  0.1020408E+00  0.0000000E+00  0.2653061E+00 -0.9014711E-08  0.0000000E+00 -0.8182858E-01
  0.1428571E+00  0.0000000E+00  0.2653061E+00 -0.8608013E-08  0.0000000E+00 -0.8182858E-01
  0.1836735E+00  0.0000000E+00  0.2653061E+00 -0.9174499E-08  0.0000000E+00 -0.8182858E-01
  0.2244898E+00  0.0000000E+00  0.2653061E+00 -0.5690165E-08  0.0000000E+00 -0.8182859E-01
  0.2653061E+00  0.0000000E+00  0.2653061E+00 -0.8279535E-08  0.0000000E+00 -0.8182859E-01
  0.3061225E+00  0.0000000E+00  0.2653061E+00 -0.7357440E-08  0.0000000E+00 -0.8182859E-01
  0.3469388E+00  0.0000000E+00  0.2653061E+00 -0.1683452E-08  0.0000000E+00 -0.8182859E-01
  0.3877551E+00  0.0000000E+00  0.2653061E+00  0.1840654E-09  0.0000000E+00 -0.8182859E-01
  0.4285714E+00  0.0000000E+00  0.2653061E+00  0.4534670E-09  0.0000000E+00 -0.8182859E-01
  0.4693878E+00  0.0000000E+00  0.2653061E+00  0.2367413E-08  0.0000000E+00 -0.8182859E-01
  0.5102041E+00  0.0000000E+00  0.2653061E+00  0.4644160E-08  0.0000000E+00 -0.8182859E-01
  0.5510204E+00  0.0000000E+00  0.2653061E+00  0.5471277E-08  0.0000000E+00 -0.8182859E-01
  0.5918368E+00  0.0000000E+00  0.2653061E+00  0.4852907E-08  0.0000000E+00 -0.8182859E-01
  0.6326531E+00  0.0000000E+00  0.2653061E+00  0.3559740E-08  0.0000000E+00 -0.8182859E-01
  0.6734694E+00  0.0000000E+00  0.2653061E+00  0.2019361E-08  0.0000000E+00 -0.8182859E-01
  0.7142857E+00  0.0000000E+00  0.2653061E+00  0.3068238E-09  0.0000000E+00 -0.8182859E-01
  0.7551020E+00  0.0000000E+00  0.2653061E+00 -0.1442524E-08  0.0000000E+00 -0.8182859E-01
  0.7959183E+00  0.0000000E+00  0.2653061E+00 -0.2853760E-08  0.0000000E+00 -0.8182859E-01
  0.8367347E+00  0.0000000E+00  0.2653061E+00 -0.3473925E-08  0.0000000E+00 -0.8182859E-01
  0.8775510E+00  0.0000000E+00  0.2653061E+00 -0.2963898E-08  0.0000000E+00 -0.8182859E-01
  0.9183673E+00  0.0000000E+00  0.2653061E+00 -0.5237340E-09  0.0000000E+00 -0.8182859E-01
  0.9591837E+00  0.0000000E+00  0.2653061E+00  0.3968169E-08  0.0000000E+00 -0.8182859E-01
  0.1000000E+01  0.0000000E+00  0.2653061E+00  0.8370133E-08  0.0000000E+00 -0.8182859E-01
  0.1040816E+01  0.0000000E+00  0.2653061E+00  0.8360728E-08  0.0000000E+00 -0.8182859E-01
  0.1081633E+01  0.0000000E+00  0.2653061E+00  0.6370790E-09  0.0000000E+00 -0.8182859E-01
  0.1122449E+01  0.0000000E+00  0.2653061E+00 -0.8328954E-09  0.0000000E+00 -0.8182858E-01
  0.1163265E+01  0.0000000E+00  0.2653061E+00  0.1787384E-08  0.0000000E+00 -0.8182858E-01
  0.1204082E+01  0.0000000E+00  0.2653061E+00  0.6489730E-08  0.0000000E+00 -0.8182858E-01
  0.1244898E+01  0.0000000E+00  0.2653061E+00  0.7769368E-08  0.0000000E+00 -0.8182858E-01
  0.1285714E+01  0.0000000E+00  0.2653061E+00  0.9062617E-08  0.0000000E+00 -0.8182858E-01
  0.1326531E+01  0.0000000E+00  0.2653061E+00  0.5400640E-08  0.0000000E+00 -0.8182858E-01