title = "dataset feddes"
variables = "x", "y", "z", "vx", "vy", "vz"
zone t = "velocities, solution time =  2.700E+01 days        " i =   49, j =   49, k =    1,  f=point
  0.2040816E-01  0.0000000E+00  0.2040816E-01  0.2446496E-06  0.0000000E+00 -0.8581549E-01
  0.6122449E-01  0.0000000E+00  0.2040816E-01  0.7307250E-06  0.0000000E+00 -0.8581439E-01
  0.1020408E+00  0.0000000E+00  0.2040816E-01  0.1206261E-05  0.0000000E+00 -0.8581218E-01
  0.1428571E+00  0.0000000E+00  0.2040816E-01  0.1662790E-05  0.0000000E+00 -0.8580892E-01
  0.1836735E+00  0.0000000E+00  0.2040816E-01  0.2091389E-05  0.0000000E+00 -0.8580465E-01
  0.2244898E+00  0.0000000E+00  0.2040816E-01  0.2486420E-05  0.0000000E+00 -0.8579945E-01
  0.2653061E+00  0.0000000E+00  0.2040816E-01  0.2842071E-05  0.0000000E+00 -0.8579339E-01
  0.3061225E+00  0.0000000E+00  0.2040816E-01  0.3151135E-05  0.0000000E+00 -0.8578658E-01
  0.3469388E+00  0.0000000E+00  0.2040816E-01  0.3407977E-05  0.0000000E+00 -0.8577912E-01
  0.3877551E+00  0.0000000E+00  0.2040816E-01  0.3608263E-05  0.0000000E+00 -0.8577115E-01
  0.4285714E+00  0.0000000E+00  0.2040816E-01  0.3748258E-05  0.0000000E+00 -0.8576279E-01
  0.4693878E+00  0.0000000E+00  0.2040816E-01  0.3824877E-05  0.0000000E+00 -0.8575418E-01
  0.5102041E+00  0.0000000E+00  0.2040816E-01  0.3835987E-05  0.0000000E+00 -0.8574547E-01
  0.5510204E+00  0.0000000E+00  0.2040816E-01  0.3780587E-05  0.0000000E+00 -0.8573681E-01
  0.5918368E+00  0.0000000E+00  0.2040816E-01  0.3658843E-05  0.0000000E+00 -0.8572836E-01
  0.6326531E+00  0.0000000E+00  0.2040816E-01  0.3472077E-05  0.0000000E+00 -0.8572025E-01
  0.6734694E+00  0.0000000E+00  0.2040816E-01  0.3222765E-05  0.0000000E+00 -0.8571264E-01
  0.7142857E+00  0.0000000E+00  0.2040816E-01  0.2914523E-05  0.0000000E+00 -0.8570567E-01
  0.7551020E+00  0.0000000E+00  0.2040816E-01  0.2552095E-05  0.0000000E+00 -0.8569945E-01
  0.7959183E+00  0.0000000E+00  0.2040816E-01  0.2141302E-05  0.0000000E+00 -0.8569412E-01
  0.8367347E+00  0.0000000E+00  0.2040816E-01  0.1688960E-05  0.0000000E+00 -0.8568977E-01
  0.8775510E+00  0.0000000E+00  0.2040816E-01  0.1202748E-05  0.0000000E+00 -0.8568648E-01
  0.9183673E+00  0.0000000E+00  0.2040816E-01  0.6910399E-06  0.0000000E+00 -0.8568433E-01
  0.9591837E+00  0.0000000E+00  0.2040816E-01  0.1627352E-06  0.0000000E+00 -0.8568336E-01
  0.1000000E+01  0.0000000E+00  0.2040816E-01 -0.3725071E-06  0.0000000E+00 -0.8568359E-01
  0.1040816E+01  0.0000000E+00  0.2040816E-01 -0.9050861E-06  0.0000000E+00 -0.8568505E-01
  0.1081633E+01  0.0000000E+00  0.2040816E-01 -0.1426751E-05  0.0000000E+00 -0.8568770E-01
  0.1122449E+01  0.0000000E+00  0.2040816E-01 -0.1927956E-05  0.0000000E+00 -0.8569151E-01
  0.1163265E+01  0.0000000E+00  0.2040816E-01 -0.2398000E-05  0.0000000E+00 -0.8569643E-01
  0.1204082E+01  0.0000000E+00  0.2040816E-01 -0.2830264E-05  0.0000000E+00 -0.8570237E-01
  0.1244898E+01  0.0000000E+00  0.2040816E-01 -0.3218354E-05  0.0000000E+00 -0.8570924E-01
  0.1285714E+01  0.0000000E+00  0.2040816E-01 -0.3554394E-05  0.0000000E+00 -0.8571694E-01
  0.1326531E+01  0.0000000E+00  0.2040816E-01 -0.3832731E-05  0.0000000E+00 -0.8572534E-01
  0.1367347E+01  0.0000000E+00  0.2040816E-01 -0.4049514E-05  0.0000000E+00 -0.8573430E-01
  0.1408163E+01  0.0000000E+00  0.2040816E-01 -0.4201756E-05  0.0000000E+00 -0.8574368E-01
  0.1448980E+01  0.0000000E+00  0.2040816E-01 -0.4287331E-05  0.0000000E+00 -0.8575333E-01
  0.1489796E+01  0.0000000E+00  0.2040816E-01 -0.4305247E-05  0.0000000E+00 -0.8576309E-01
  0.1530612E+01  0.0000000E+00  0.2040816E-01 -0.4255737E-05  0.0000000E+00 -0.8577282E-01
  0.1571429E+01  0.0000000E+00  0.2040816E-01 -0.4140179E-05  0.0000000E+00 -0.8578237E-01
  0.1612245E+01  0.0000000E+00  0.2040816E-01 -0.3960972E-05  0.0000000E+00 -0.8579158E-01
  0.1653061E+01  0.0000000E+00  0.2040816E-01 -0.3721426E-05  0.0000000E+00 -0.8580031E-01
  0.1693878E+01  0.0000000E+00  0.2040816E-01 -0.3425673E-05  0.0000000E+00 -0.8580843E-01
  0.1734694E+01  0.0000000E+00  0.2040816E-01 -0.3078582E-05  0.0000000E+00 -0.8581583E-01
  0.1775510E+01  0.0000000E+00  0.2040816E-01 -0.2685694E-05  0.0000000E+00 -0.8582238E-01
  0.1816326E+01  0.0000000E+00  0.2040816E-01 -0.2253119E-05  0.0000000E+00 -0.8582800E-01
  0.1857143E+01  0.0000000E+00  0.2040816E-01 -0.1787449E-05  0.0000000E+00 -0.8583259E-01
  0.1897959E+01  0.0000000E+00  0.2040816E-01 -0.1295663E-05  0.0000000E+00 -0.8583609E-01
  0.1938776E+01  0.0000000E+00  0.2040816E-01 -0.7850251E-06  0.0000000E+00 -0.8583846E-01
  0.1989796E+01  0.0000000E+00  0.2040816E-01 -0.2630439E-06  0.0000000E+00 -0.8583965E-01
  0.2040816E-01  0.0000000E+00  0.6122449E-01  0.6709630E-06  0.0000000E+00 -0.8581646E-01
  0.6122449E-01  0.0000000E+00  0.6122449E-01  0.2003782E-05  0.0000000E+00 -0.8581534E-01
  0.1020408E+00  0.0000000E+00  0.6122449E-01  0.3306666E-05  0.0000000E+00 -0.8581310E-01
  0.1428571E+00  0.0000000E+00  0.6122449E-01  0.4557547E-05  0.0000000E+00 -0.8580980E-01
  0.1836735E+00  0.0000000E+00  0.6122449E-01  0.5733122E-05  0.0000000E+00 -0.8580547E-01
  0.2244898E+00  0.0000000E+00  0.6122449E-01  0.6816547E-05  0.0000000E+00 -0.8580019E-01
  0.2653061E+00  0.0000000E+00  0.6122449E-01  0.7791506E-05  0.0000000E+00 -0.8579405E-01
  0.3061225E+00  0.0000000E+00  0.6122449E-01  0.8639004E-05  0.0000000E+00 -0.8578714E-01
  0.3469388E+00  0.0000000E+00  0.6122449E-01  0.9343707E-05  0.0000000E+00 -0.8577957E-01
  0.3877551E+00  0.0000000E+00  0.6122449E-01  0.9893487E-05  0.0000000E+00 -0.8577148E-01
  0.4285714E+00  0.0000000E+00  0.6122449E-01  0.1027797E-04  0.0000000E+00 -0.8576299E-01
  0.4693878E+00  0.0000000E+00  0.6122449E-01  0.1048870E-04  0.0000000E+00 -0.8575426E-01
  0.5102041E+00  0.0000000E+00  0.6122449E-01  0.1051985E-04  0.0000000E+00 -0.8574542E-01
  0.5510204E+00  0.0000000E+00  0.6122449E-01  0.1036865E-04  0.0000000E+00 -0.8573663E-01
  0.5918368E+00  0.0000000E+00  0.6122449E-01  0.1003551E-04  0.0000000E+00 -0.8572804E-01
  0.6326531E+00  0.0000000E+00  0.6122449E-01  0.9524016E-05  0.0000000E+00 -0.8571980E-01
  0.6734694E+00  0.0000000E+00  0.6122449E-01  0.8840912E-05  0.0000000E+00 -0.8571207E-01
  0.7142857E+00  0.0000000E+00  0.6122449E-01  0.7996092E-05  0.0000000E+00 -0.8570498E-01
  0.7551020E+00  0.0000000E+00  0.6122449E-01  0.7002547E-05  0.0000000E+00 -0.8569867E-01
  0.7959183E+00  0.0000000E+00  0.6122449E-01  0.5876242E-05  0.0000000E+00 -0.8569324E-01
  0.8367347E+00  0.0000000E+00  0.6122449E-01  0.4635878E-05  0.0000000E+00 -0.8568882E-01
  0.8775510E+00  0.0000000E+00  0.6122449E-01  0.3302498E-05  0.0000000E+00 -0.8568547E-01
  0.9183673E+00  0.0000000E+00  0.6122449E-01  0.1899035E-05  0.0000000E+00 -0.8568328E-01
  0.9591837E+00  0.0000000E+00  0.6122449E-01  0.4504410E-06  0.0000000E+00 -0.8568228E-01
  0.1000000E+01  0.0000000E+00  0.6122449E-01 -0.1017778E-05  0.0000000E+00 -0.8568251E-01
  0.1040816E+01  0.0000000E+00  0.6122449E-01 -0.2479219E-05  0.0000000E+00 -0.8568398E-01
  0.1081633E+01  0.0000000E+00  0.6122449E-01 -0.3909418E-05  0.0000000E+00 -0.8568666E-01
  0.1122449E+01  0.0000000E+00  0.6122449E-01 -0.5283344E-05  0.0000000E+00 -0.8569053E-01
  0.1163265E+01  0.0000000E+00  0.6122449E-01 -0.6573065E-05  0.0000000E+00 -0.8569551E-01
  0.1204082E+01  0.0000000E+00  0.6122449E-01 -0.7758783E-05  0.0000000E+00 -0.8570154E-01
  0.1244898E+01  0.0000000E+00  0.6122449E-01 -0.8822482E-05  0.0000000E+00 -0.8570851E-01
  0.1285714E+01  0.0000000E+00  0.6122449E-01 -0.9743505E-05  0.0000000E+00 -0.8571632E-01
  0.1326531E+01  0.0000000E+00  0.6122449E-01 -0.1050650E-04  0.0000000E+00 -0.8572483E-01
  0.1367347E+01  0.0000000E+00  0.6122449E-01 -0.1110063E-04  0.0000000E+00 -0.8573392E-01
  0.1408163E+01  0.0000000E+00  0.6122449E-01 -0.1151763E-04  0.0000000E+00 -0.8574343E-01
  0.1448980E+01  0.0000000E+00  0.6122449E-01 -0.1175173E-04  0.0000000E+00 -0.8575321E-01
  0.1489796E+01  0.0000000E+00  0.6122449E-01 -0.1180031E-04  0.0000000E+00 -0.8576311E-01
  0.1530612E+01  0.0000000E+00  0.6122449E-01 -0.1166409E-04  0.0000000E+00 -0.8577298E-01
  0.1571429E+01  0.0000000E+00  0.6122449E-01 -0.1134686E-04  0.0000000E+00 -0.8578265E-01
  0.1612245E+01  0.0000000E+00  0.6122449E-01 -0.1085523E-04  0.0000000E+00 -0.8579199E-01
  0.1653061E+01  0.0000000E+00  0.6122449E-01 -0.1019829E-04  0.0000000E+00 -0.8580084E-01
  0.1693878E+01  0.0000000E+00  0.6122449E-01 -0.9387409E-05  0.0000000E+00 -0.8580907E-01
  0.1734694E+01  0.0000000E+00  0.6122449E-01 -0.8435942E-05  0.0000000E+00 -0.8581656E-01
  0.1775510E+01  0.0000000E+00  0.6122449E-01 -0.7359082E-05  0.0000000E+00 -0.8582320E-01
  0.1816326E+01  0.0000000E+00  0.6122449E-01 -0.6173581E-05  0.0000000E+00 -0.8582888E-01
  0.1857143E+01  0.0000000E+00  0.6122449E-01 -0.4897496E-05  0.0000000E+00 -0.8583354E-01
  0.1897959E+01  0.0000000E+00  0.6122449E-01 -0.3549922E-05  0.0000000E+00 -0.8583709E-01
  0.1938776E+01  0.0000000E+00  0.6122449E-01 -0.2150711E-05  0.0000000E+00 -0.8583948E-01
  0.1989796E+01  0.0000000E+00  0.6122449E-01 -0.7206728E-06  0.0000000E+00 -0.8584069E-01
  0.2040816E-01  0.0000000E+00  0.1020408E+00  0.1008006E-05  0.0000000E+00 -0.8581814E-01
  0.6122449E-01  0.0000000E+00  0.1020408E+00  0.3010357E-05  0.0000000E+00 -0.8581699E-01
  0.1020408E+00  0.0000000E+00  0.1020408E+00  0.4966587E-05  0.0000000E+00 -0.8581470E-01
  0.1428571E+00  0.0000000E+00  0.1020408E+00  0.6844704E-05  0.0000000E+00 -0.8581131E-01
  0.1836735E+00  0.0000000E+00  0.1020408E+00  0.8611533E-05  0.0000000E+00 -0.8580688E-01
  0.2244898E+00  0.0000000E+00  0.1020408E+00  0.1024002E-04  0.0000000E+00 -0.8580147E-01
  0.2653061E+00  0.0000000E+00  0.1020408E+00  0.1170502E-04  0.0000000E+00 -0.8579518E-01
  0.3061225E+00  0.0000000E+00  0.1020408E+00  0.1297911E-04  0.0000000E+00 -0.8578810E-01
  0.3469388E+00  0.0000000E+00  0.1020408E+00  0.1403943E-04  0.0000000E+00 -0.8578034E-01
  0.3877551E+00  0.0000000E+00  0.1020408E+00  0.1486734E-04  0.0000000E+00 -0.8577205E-01
  0.4285714E+00  0.0000000E+00  0.1020408E+00  0.1544701E-04  0.0000000E+00 -0.8576335E-01
  0.4693878E+00  0.0000000E+00  0.1020408E+00  0.1576569E-04  0.0000000E+00 -0.8575438E-01
  0.5102041E+00  0.0000000E+00  0.1020408E+00  0.1581461E-04  0.0000000E+00 -0.8574531E-01
  0.5510204E+00  0.0000000E+00  0.1020408E+00  0.1558953E-04  0.0000000E+00 -0.8573629E-01
  0.5918368E+00  0.0000000E+00  0.1020408E+00  0.1509094E-04  0.0000000E+00 -0.8572747E-01
  0.6326531E+00  0.0000000E+00  0.1020408E+00  0.1432410E-04  0.0000000E+00 -0.8571902E-01
  0.6734694E+00  0.0000000E+00  0.1020408E+00  0.1329904E-04  0.0000000E+00 -0.8571108E-01
  0.7142857E+00  0.0000000E+00  0.1020408E+00  0.1203054E-04  0.0000000E+00 -0.8570379E-01
  0.7551020E+00  0.0000000E+00  0.1020408E+00  0.1053809E-04  0.0000000E+00 -0.8569729E-01
  0.7959183E+00  0.0000000E+00  0.1020408E+00  0.8845689E-05  0.0000000E+00 -0.8569171E-01
  0.8367347E+00  0.0000000E+00  0.1020408E+00  0.6981462E-05  0.0000000E+00 -0.8568715E-01
  0.8775510E+00  0.0000000E+00  0.1020408E+00  0.4977050E-05  0.0000000E+00 -0.8568370E-01
  0.9183673E+00  0.0000000E+00  0.1020408E+00  0.2866850E-05  0.0000000E+00 -0.8568144E-01
  0.9591837E+00  0.0000000E+00  0.1020408E+00  0.6889236E-06  0.0000000E+00 -0.8568040E-01
  0.1000000E+01  0.0000000E+00  0.1020408E+00 -0.1518785E-05  0.0000000E+00 -0.8568062E-01
  0.1040816E+01  0.0000000E+00  0.1020408E+00 -0.3717139E-05  0.0000000E+00 -0.8568212E-01
  0.1081633E+01  0.0000000E+00  0.1020408E+00 -0.5867169E-05  0.0000000E+00 -0.8568486E-01
  0.1122449E+01  0.0000000E+00  0.1020408E+00 -0.7931980E-05  0.0000000E+00 -0.8568881E-01
  0.1163265E+01  0.0000000E+00  0.1020408E+00 -0.9871693E-05  0.0000000E+00 -0.8569391E-01
  0.1204082E+01  0.0000000E+00  0.1020408E+00 -0.1165443E-04  0.0000000E+00 -0.8570008E-01
  0.1244898E+01  0.0000000E+00  0.1020408E+00 -0.1325228E-04  0.0000000E+00 -0.8570722E-01
  0.1285714E+01  0.0000000E+00  0.1020408E+00 -0.1463558E-04  0.0000000E+00 -0.8571522E-01
  0.1326531E+01  0.0000000E+00  0.1020408E+00 -0.1578147E-04  0.0000000E+00 -0.8572394E-01
  0.1367347E+01  0.0000000E+00  0.1020408E+00 -0.1667333E-04  0.0000000E+00 -0.8573325E-01
  0.1408163E+01  0.0000000E+00  0.1020408E+00 -0.1729860E-04  0.0000000E+00 -0.8574299E-01
  0.1448980E+01  0.0000000E+00  0.1020408E+00 -0.1764878E-04  0.0000000E+00 -0.8575301E-01
  0.1489796E+01  0.0000000E+00  0.1020408E+00 -0.1772018E-04  0.0000000E+00 -0.8576314E-01
  0.1530612E+01  0.0000000E+00  0.1020408E+00 -0.1751402E-04  0.0000000E+00 -0.8577324E-01
  0.1571429E+01  0.0000000E+00  0.1020408E+00 -0.1703614E-04  0.0000000E+00 -0.8578314E-01
  0.1612245E+01  0.0000000E+00  0.1020408E+00 -0.1629651E-04  0.0000000E+00 -0.8579269E-01
  0.1653061E+01  0.0000000E+00  0.1020408E+00 -0.1530890E-04  0.0000000E+00 -0.8580174E-01
  0.1693878E+01  0.0000000E+00  0.1020408E+00 -0.1409045E-04  0.0000000E+00 -0.8581016E-01
  0.1734694E+01  0.0000000E+00  0.1020408E+00 -0.1266129E-04  0.0000000E+00 -0.8581782E-01
  0.1775510E+01  0.0000000E+00  0.1020408E+00 -0.1104425E-04  0.0000000E+00 -0.8582461E-01
  0.1816326E+01  0.0000000E+00  0.1020408E+00 -0.9264509E-05  0.0000000E+00 -0.8583042E-01
  0.1857143E+01  0.0000000E+00  0.1020408E+00 -0.7349127E-05  0.0000000E+00 -0.8583518E-01
  0.1897959E+01  0.0000000E+00  0.1020408E+00 -0.5326696E-05  0.0000000E+00 -0.8583881E-01
  0.1938776E+01  0.0000000E+00  0.1020408E+00 -0.3226914E-05  0.0000000E+00 -0.8584125E-01
  0.1989796E+01  0.0000000E+00  0.1020408E+00 -0.1081225E-05  0.0000000E+00 -0.8584249E-01
  0.2040816E-01  0.0000000E+00  0.1428571E+00  0.1303241E-05  0.0000000E+00 -0.8582042E-01
  0.6122449E-01  0.0000000E+00  0.1428571E+00  0.3892160E-05  0.0000000E+00 -0.8581923E-01
  0.1020408E+00  0.0000000E+00  0.1428571E+00  0.6421273E-05  0.0000000E+00 -0.8581687E-01
  0.1428571E+00  0.0000000E+00  0.1428571E+00  0.8849396E-05  0.0000000E+00 -0.8581337E-01
  0.1836735E+00  0.0000000E+00  0.1428571E+00  0.1113492E-04  0.0000000E+00 -0.8580880E-01
  0.2244898E+00  0.0000000E+00  0.1428571E+00  0.1324215E-04  0.0000000E+00 -0.8580322E-01
  0.2653061E+00  0.0000000E+00  0.1428571E+00  0.1513805E-04  0.0000000E+00 -0.8579672E-01
  0.3061225E+00  0.0000000E+00  0.1428571E+00  0.1678791E-04  0.0000000E+00 -0.8578940E-01
  0.3469388E+00  0.0000000E+00  0.1428571E+00  0.1816222E-04  0.0000000E+00 -0.8578139E-01
  0.3877551E+00  0.0000000E+00  0.1428571E+00  0.1923652E-04  0.0000000E+00 -0.8577282E-01
  0.4285714E+00  0.0000000E+00  0.1428571E+00  0.1999008E-04  0.0000000E+00 -0.8576382E-01
  0.4693878E+00  0.0000000E+00  0.1428571E+00  0.2040626E-04  0.0000000E+00 -0.8575455E-01
  0.5102041E+00  0.0000000E+00  0.1428571E+00  0.2047360E-04  0.0000000E+00 -0.8574517E-01
  0.5510204E+00  0.0000000E+00  0.1428571E+00  0.2018641E-04  0.0000000E+00 -0.8573583E-01
  0.5918368E+00  0.0000000E+00  0.1428571E+00  0.1954513E-04  0.0000000E+00 -0.8572670E-01
  0.6326531E+00  0.0000000E+00  0.1428571E+00  0.1855630E-04  0.0000000E+00 -0.8571794E-01
  0.6734694E+00  0.0000000E+00  0.1428571E+00  0.1723273E-04  0.0000000E+00 -0.8570970E-01
  0.7142857E+00  0.0000000E+00  0.1428571E+00  0.1559339E-04  0.0000000E+00 -0.8570215E-01
  0.7551020E+00  0.0000000E+00  0.1428571E+00  0.1366344E-04  0.0000000E+00 -0.8569541E-01
  0.7959183E+00  0.0000000E+00  0.1428571E+00  0.1147392E-04  0.0000000E+00 -0.8568961E-01
  0.8367347E+00  0.0000000E+00  0.1428571E+00  0.9061217E-05  0.0000000E+00 -0.8568487E-01
  0.8775510E+00  0.0000000E+00  0.1428571E+00  0.6466309E-05  0.0000000E+00 -0.8568128E-01
  0.9183673E+00  0.0000000E+00  0.1428571E+00  0.3734000E-05  0.0000000E+00 -0.8567891E-01
  0.9591837E+00  0.0000000E+00  0.1428571E+00  0.9133272E-06  0.0000000E+00 -0.8567782E-01
  0.1000000E+01  0.0000000E+00  0.1428571E+00 -0.1945693E-05  0.0000000E+00 -0.8567803E-01
  0.1040816E+01  0.0000000E+00  0.1428571E+00 -0.4792996E-05  0.0000000E+00 -0.8567956E-01
  0.1081633E+01  0.0000000E+00  0.1428571E+00 -0.7577477E-05  0.0000000E+00 -0.8568238E-01
  0.1122449E+01  0.0000000E+00  0.1428571E+00 -0.1025071E-04  0.0000000E+00 -0.8568645E-01
  0.1163265E+01  0.0000000E+00  0.1428571E+00 -0.1276232E-04  0.0000000E+00 -0.8569171E-01
  0.1204082E+01  0.0000000E+00  0.1428571E+00 -0.1507005E-04  0.0000000E+00 -0.8569808E-01
  0.1244898E+01  0.0000000E+00  0.1428571E+00 -0.1713706E-04  0.0000000E+00 -0.8570546E-01
  0.1285714E+01  0.0000000E+00  0.1428571E+00 -0.1892585E-04  0.0000000E+00 -0.8571371E-01
  0.1326531E+01  0.0000000E+00  0.1428571E+00 -0.2040706E-04  0.0000000E+00 -0.8572272E-01
  0.1367347E+01  0.0000000E+00  0.1428571E+00 -0.2155895E-04  0.0000000E+00 -0.8573233E-01
  0.1408163E+01  0.0000000E+00  0.1428571E+00 -0.2236530E-04  0.0000000E+00 -0.8574238E-01
  0.1448980E+01  0.0000000E+00  0.1428571E+00 -0.2281540E-04  0.0000000E+00 -0.8575272E-01
  0.1489796E+01  0.0000000E+00  0.1428571E+00 -0.2290476E-04  0.0000000E+00 -0.8576318E-01
  0.1530612E+01  0.0000000E+00  0.1428571E+00 -0.2263523E-04  0.0000000E+00 -0.8577359E-01
  0.1571429E+01  0.0000000E+00  0.1428571E+00 -0.2201460E-04  0.0000000E+00 -0.8578380E-01
  0.1612245E+01  0.0000000E+00  0.1428571E+00 -0.2105597E-04  0.0000000E+00 -0.8579364E-01
  0.1653061E+01  0.0000000E+00  0.1428571E+00 -0.1977729E-04  0.0000000E+00 -0.8580297E-01
  0.1693878E+01  0.0000000E+00  0.1428571E+00 -0.1820087E-04  0.0000000E+00 -0.8581165E-01
  0.1734694E+01  0.0000000E+00  0.1428571E+00 -0.1635286E-04  0.0000000E+00 -0.8581954E-01
  0.1775510E+01  0.0000000E+00  0.1428571E+00 -0.1426284E-04  0.0000000E+00 -0.8582653E-01
  0.1816326E+01  0.0000000E+00  0.1428571E+00 -0.1196335E-04  0.0000000E+00 -0.8583251E-01
  0.1857143E+01  0.0000000E+00  0.1428571E+00 -0.9489290E-05  0.0000000E+00 -0.8583741E-01
  0.1897959E+01  0.0000000E+00  0.1428571E+00 -0.6877403E-05  0.0000000E+00 -0.8584114E-01
  0.1938776E+01  0.0000000E+00  0.1428571E+00 -0.4166065E-05  0.0000000E+00 -0.8584366E-01
  0.1989796E+01  0.0000000E+00  0.1428571E+00 -0.1395719E-05  0.0000000E+00 -0.8584493E-01
  0.2040816E-01  0.0000000E+00  0.1836735E+00  0.1573178E-05  0.0000000E+00 -0.8582323E-01
  0.6122449E-01  0.0000000E+00  0.1836735E+00  0.4697952E-05  0.0000000E+00 -0.8582200E-01
  0.1020408E+00  0.0000000E+00  0.1836735E+00  0.7750756E-05  0.0000000E+00 -0.8581955E-01
  0.1428571E+00  0.0000000E+00  0.1836735E+00  0.1068204E-04  0.0000000E+00 -0.8581592E-01
  0.1836735E+00  0.0000000E+00  0.1836735E+00  0.1344243E-04  0.0000000E+00 -0.8581117E-01
  0.2244898E+00  0.0000000E+00  0.1836735E+00  0.1598856E-04  0.0000000E+00 -0.8580537E-01
  0.2653061E+00  0.0000000E+00  0.1836735E+00  0.1828023E-04  0.0000000E+00 -0.8579862E-01
  0.3061225E+00  0.0000000E+00  0.1836735E+00  0.2027601E-04  0.0000000E+00 -0.8579101E-01
  0.3469388E+00  0.0000000E+00  0.1836735E+00  0.2194026E-04  0.0000000E+00 -0.8578269E-01
  0.3877551E+00  0.0000000E+00  0.1836735E+00  0.2324310E-04  0.0000000E+00 -0.8577377E-01
  0.4285714E+00  0.0000000E+00  0.1836735E+00  0.2415917E-04  0.0000000E+00 -0.8576441E-01
  0.4693878E+00  0.0000000E+00  0.1836735E+00  0.2466816E-04  0.0000000E+00 -0.8575476E-01
  0.5102041E+00  0.0000000E+00  0.1836735E+00  0.2475593E-04  0.0000000E+00 -0.8574498E-01
  0.5510204E+00  0.0000000E+00  0.1836735E+00  0.2441532E-04  0.0000000E+00 -0.8573525E-01
  0.5918368E+00  0.0000000E+00  0.1836735E+00  0.2364647E-04  0.0000000E+00 -0.8572573E-01
  0.6326531E+00  0.0000000E+00  0.1836735E+00  0.2245699E-04  0.0000000E+00 -0.8571659E-01
  0.6734694E+00  0.0000000E+00  0.1836735E+00  0.2086200E-04  0.0000000E+00 -0.8570799E-01
  0.7142857E+00  0.0000000E+00  0.1836735E+00  0.1888424E-04  0.0000000E+00 -0.8570010E-01
  0.7551020E+00  0.0000000E+00  0.1836735E+00  0.1655396E-04  0.0000000E+00 -0.8569306E-01
  0.7959183E+00  0.0000000E+00  0.1836735E+00  0.1390868E-04  0.0000000E+00 -0.8568699E-01
  0.8367347E+00  0.0000000E+00  0.1836735E+00  0.1099238E-04  0.0000000E+00 -0.8568203E-01
  0.8775510E+00  0.0000000E+00  0.1836735E+00  0.7854501E-05  0.0000000E+00 -0.8567826E-01
  0.9183673E+00  0.0000000E+00  0.1836735E+00  0.4549921E-05  0.0000000E+00 -0.8567576E-01
  0.9591837E+00  0.0000000E+00  0.1836735E+00  0.1137546E-05  0.0000000E+00 -0.8567460E-01
  0.1000000E+01  0.0000000E+00  0.1836735E+00 -0.2321479E-05  0.0000000E+00 -0.8567480E-01
  0.1040816E+01  0.0000000E+00  0.1836735E+00 -0.5766333E-05  0.0000000E+00 -0.8567637E-01
  0.1081633E+01  0.0000000E+00  0.1836735E+00 -0.9135009E-05  0.0000000E+00 -0.8567928E-01
  0.1122449E+01  0.0000000E+00  0.1836735E+00 -0.1236822E-04  0.0000000E+00 -0.8568351E-01
  0.1163265E+01  0.0000000E+00  0.1836735E+00 -0.1540561E-04  0.0000000E+00 -0.8568897E-01
  0.1204082E+01  0.0000000E+00  0.1836735E+00 -0.1819551E-04  0.0000000E+00 -0.8569559E-01
  0.1244898E+01  0.0000000E+00  0.1836735E+00 -0.2069282E-04  0.0000000E+00 -0.8570325E-01
  0.1285714E+01  0.0000000E+00  0.1836735E+00 -0.2285279E-04  0.0000000E+00 -0.8571183E-01
  0.1326531E+01  0.0000000E+00  0.1836735E+00 -0.2464014E-04  0.0000000E+00 -0.8572119E-01
  0.1367347E+01  0.0000000E+00  0.1836735E+00 -0.2602853E-04  0.0000000E+00 -0.8573118E-01
  0.1408163E+01  0.0000000E+00  0.1836735E+00 -0.2699854E-04  0.0000000E+00 -0.8574162E-01
  0.1448980E+01  0.0000000E+00  0.1836735E+00 -0.2753763E-04  0.0000000E+00 -0.8575236E-01
  0.1489796E+01  0.0000000E+00  0.1836735E+00 -0.2764077E-04  0.0000000E+00 -0.8576322E-01
  0.1530612E+01  0.0000000E+00  0.1836735E+00 -0.2731062E-04  0.0000000E+00 -0.8577402E-01
  0.1571429E+01  0.0000000E+00  0.1836735E+00 -0.2655694E-04  0.0000000E+00 -0.8578461E-01
  0.1612245E+01  0.0000000E+00  0.1836735E+00 -0.2539590E-04  0.0000000E+00 -0.8579482E-01
  0.1653061E+01  0.0000000E+00  0.1836735E+00 -0.2384944E-04  0.0000000E+00 -0.8580450E-01
  0.1693878E+01  0.0000000E+00  0.1836735E+00 -0.2194473E-04  0.0000000E+00 -0.8581348E-01
  0.1734694E+01  0.0000000E+00  0.1836735E+00 -0.1971350E-04  0.0000000E+00 -0.8582166E-01
  0.1775510E+01  0.0000000E+00  0.1836735E+00 -0.1719153E-04  0.0000000E+00 -0.8582890E-01
  0.1816326E+01  0.0000000E+00  0.1836735E+00 -0.1441815E-04  0.0000000E+00 -0.8583510E-01
  0.1857143E+01  0.0000000E+00  0.1836735E+00 -0.1143534E-04  0.0000000E+00 -0.8584016E-01
  0.1897959E+01  0.0000000E+00  0.1836735E+00 -0.8287075E-05  0.0000000E+00 -0.8584403E-01
  0.1938776E+01  0.0000000E+00  0.1836735E+00 -0.5019668E-05  0.0000000E+00 -0.8584663E-01
  0.1989796E+01  0.0000000E+00  0.1836735E+00 -0.1681478E-05  0.0000000E+00 -0.8584795E-01
  0.2040816E-01  0.0000000E+00  0.2244898E+00  0.1827307E-05  0.0000000E+00 -0.8582655E-01
  0.6122449E-01  0.0000000E+00  0.2244898E+00  0.5456457E-05  0.0000000E+00 -0.8582526E-01
  0.1020408E+00  0.0000000E+00  0.2244898E+00  0.9002384E-05  0.0000000E+00 -0.8582271E-01
  0.1428571E+00  0.0000000E+00  0.2244898E+00  0.1240791E-04  0.0000000E+00 -0.8581892E-01
  0.1836735E+00  0.0000000E+00  0.2244898E+00  0.1561641E-04  0.0000000E+00 -0.8581396E-01
  0.2244898E+00  0.0000000E+00  0.2244898E+00  0.1857741E-04  0.0000000E+00 -0.8580791E-01
  0.2653061E+00  0.0000000E+00  0.2244898E+00  0.2124401E-04  0.0000000E+00 -0.8580086E-01
  0.3061225E+00  0.0000000E+00  0.2244898E+00  0.2356842E-04  0.0000000E+00 -0.8579292E-01
  0.3469388E+00  0.0000000E+00  0.2244898E+00  0.2550917E-04  0.0000000E+00 -0.8578421E-01
  0.3877551E+00  0.0000000E+00  0.2244898E+00  0.2703115E-04  0.0000000E+00 -0.8577489E-01
  0.4285714E+00  0.0000000E+00  0.2244898E+00  0.2810451E-04  0.0000000E+00 -0.8576509E-01
  0.4693878E+00  0.0000000E+00  0.2244898E+00  0.2870525E-04  0.0000000E+00 -0.8575500E-01
  0.5102041E+00  0.0000000E+00  0.2244898E+00  0.2881655E-04  0.0000000E+00 -0.8574476E-01
  0.5510204E+00  0.0000000E+00  0.2244898E+00  0.2842959E-04  0.0000000E+00 -0.8573456E-01
  0.5918368E+00  0.0000000E+00  0.2244898E+00  0.2754402E-04  0.0000000E+00 -0.8572458E-01
  0.6326531E+00  0.0000000E+00  0.2244898E+00  0.2616820E-04  0.0000000E+00 -0.8571499E-01
  0.6734694E+00  0.0000000E+00  0.2244898E+00  0.2431931E-04  0.0000000E+00 -0.8570597E-01
  0.7142857E+00  0.0000000E+00  0.2244898E+00  0.2202345E-04  0.0000000E+00 -0.8569768E-01
  0.7551020E+00  0.0000000E+00  0.2244898E+00  0.1931561E-04  0.0000000E+00 -0.8569027E-01
  0.7959183E+00  0.0000000E+00  0.2244898E+00  0.1623942E-04  0.0000000E+00 -0.8568389E-01
  0.8367347E+00  0.0000000E+00  0.2244898E+00  0.1284608E-04  0.0000000E+00 -0.8567865E-01
  0.8775510E+00  0.0000000E+00  0.2244898E+00  0.9193050E-05  0.0000000E+00 -0.8567467E-01
  0.9183673E+00  0.0000000E+00  0.2244898E+00  0.5344859E-05  0.0000000E+00 -0.8567203E-01
  0.9591837E+00  0.0000000E+00  0.2244898E+00  0.1370157E-05  0.0000000E+00 -0.8567078E-01
  0.1000000E+01  0.0000000E+00  0.2244898E+00 -0.2659474E-05  0.0000000E+00 -0.8567096E-01
  0.1040816E+01  0.0000000E+00  0.2244898E+00 -0.6672562E-05  0.0000000E+00 -0.8567258E-01
  0.1081633E+01  0.0000000E+00  0.2244898E+00 -0.1059653E-04  0.0000000E+00 -0.8567561E-01
  0.1122449E+01  0.0000000E+00  0.2244898E+00 -0.1436172E-04  0.0000000E+00 -0.8568002E-01
  0.1163265E+01  0.0000000E+00  0.2244898E+00 -0.1789804E-04  0.0000000E+00 -0.8568572E-01
  0.1204082E+01  0.0000000E+00  0.2244898E+00 -0.2114485E-04  0.0000000E+00 -0.8569263E-01
  0.1244898E+01  0.0000000E+00  0.2244898E+00 -0.2404915E-04  0.0000000E+00 -0.8570064E-01
  0.1285714E+01  0.0000000E+00  0.2244898E+00 -0.2655933E-04  0.0000000E+00 -0.8570961E-01
  0.1326531E+01  0.0000000E+00  0.2244898E+00 -0.2863451E-04  0.0000000E+00 -0.8571938E-01
  0.1367347E+01  0.0000000E+00  0.2244898E+00 -0.3024418E-04  0.0000000E+00 -0.8572981E-01
  0.1408163E+01  0.0000000E+00  0.2244898E+00 -0.3136604E-04  0.0000000E+00 -0.8574072E-01
  0.1448980E+01  0.0000000E+00  0.2244898E+00 -0.3198604E-04  0.0000000E+00 -0.8575193E-01
  0.1489796E+01  0.0000000E+00  0.2244898E+00 -0.3209895E-04  0.0000000E+00 -0.8576326E-01
  0.1530612E+01  0.0000000E+00  0.2244898E+00 -0.3170836E-04  0.0000000E+00 -0.8577453E-01
  0.1571429E+01  0.0000000E+00  0.2244898E+00 -0.3082621E-04  0.0000000E+00 -0.8578557E-01
  0.1612245E+01  0.0000000E+00  0.2244898E+00 -0.2947177E-04  0.0000000E+00 -0.8579621E-01
  0.1653061E+01  0.0000000E+00  0.2244898E+00 -0.2767097E-04  0.0000000E+00 -0.8580628E-01
  0.1693878E+01  0.0000000E+00  0.2244898E+00 -0.2545567E-04  0.0000000E+00 -0.8581565E-01
  0.1734694E+01  0.0000000E+00  0.2244898E+00 -0.2286298E-04  0.0000000E+00 -0.8582415E-01
  0.1775510E+01  0.0000000E+00  0.2244898E+00 -0.1993458E-04  0.0000000E+00 -0.8583169E-01
  0.1816326E+01  0.0000000E+00  0.2244898E+00 -0.1671615E-04  0.0000000E+00 -0.8583813E-01
  0.1857143E+01  0.0000000E+00  0.2244898E+00 -0.1325634E-04  0.0000000E+00 -0.8584340E-01
  0.1897959E+01  0.0000000E+00  0.2244898E+00 -0.9605797E-05  0.0000000E+00 -0.8584742E-01
  0.1938776E+01  0.0000000E+00  0.2244898E+00 -0.5818056E-05  0.0000000E+00 -0.8585013E-01
  0.1989796E+01  0.0000000E+00  0.2244898E+00 -0.1948685E-05  0.0000000E+00 -0.8585150E-01
  0.2040816E-01  0.0000000E+00  0.2653061E+00  0.2072082E-05  0.0000000E+00 -0.8583034E-01
  0.6122449E-01  0.0000000E+00  0.2653061E+00  0.6187179E-05  0.0000000E+00 -0.8582899E-01
  0.1020408E+00  0.0000000E+00  0.2653061E+00  0.1020843E-04  0.0000000E+00 -0.8582632E-01
  0.1428571E+00  0.0000000E+00  0.2653061E+00  0.1407156E-04  0.0000000E+00 -0.8582235E-01
  0.1836735E+00  0.0000000E+00  0.2653061E+00  0.1771309E-04  0.0000000E+00 -0.8581716E-01
  0.2244898E+00  0.0000000E+00  0.2653061E+00  0.2107580E-04  0.0000000E+00 -0.8581081E-01
  0.2653061E+00  0.0000000E+00  0.2653061E+00  0.2410637E-04  0.0000000E+00 -0.8580342E-01
  0.3061225E+00  0.0000000E+00  0.2653061E+00  0.2675086E-04  0.0000000E+00 -0.8579509E-01
  0.3469388E+00  0.0000000E+00  0.2653061E+00  0.2896211E-04  0.0000000E+00 -0.8578596E-01
  0.3877551E+00  0.0000000E+00  0.2653061E+00  0.3069985E-04  0.0000000E+00 -0.8577617E-01
  0.4285714E+00  0.0000000E+00  0.2653061E+00  0.3192971E-04  0.0000000E+00 -0.8576589E-01
  0.4693878E+00  0.0000000E+00  0.2653061E+00  0.3262394E-04  0.0000000E+00 -0.8575527E-01
  0.5102041E+00  0.0000000E+00  0.2653061E+00  0.3276284E-04  0.0000000E+00 -0.8574451E-01
  0.5510204E+00  0.0000000E+00  0.2653061E+00  0.3233573E-04  0.0000000E+00 -0.8573378E-01
  0.5918368E+00  0.0000000E+00  0.2653061E+00  0.3134155E-04  0.0000000E+00 -0.8572326E-01
  0.6326531E+00  0.0000000E+00  0.2653061E+00  0.2978910E-04  0.0000000E+00 -0.8571316E-01
  0.6734694E+00  0.0000000E+00  0.2653061E+00  0.2769733E-04  0.0000000E+00 -0.8570364E-01
  0.7142857E+00  0.0000000E+00  0.2653061E+00  0.2509543E-04  0.0000000E+00 -0.8569489E-01
  0.7551020E+00  0.0000000E+00  0.2653061E+00  0.2202289E-04  0.0000000E+00 -0.8568706E-01
  0.7959183E+00  0.0000000E+00  0.2653061E+00  0.1852916E-04  0.0000000E+00 -0.8568031E-01
  0.8367347E+00  0.0000000E+00  0.2653061E+00  0.1467249E-04  0.0000000E+00 -0.8567477E-01
  0.8775510E+00  0.0000000E+00  0.2653061E+00  0.1051832E-04  0.0000000E+00 -0.8567055E-01
  0.9183673E+00  0.0000000E+00  0.2653061E+00  0.6140474E-05  0.0000000E+00 -0.8566773E-01
  0.9591837E+00  0.0000000E+00  0.2653061E+00  0.1617469E-05  0.0000000E+00 -0.8566638E-01
  0.1000000E+01  0.0000000E+00  0.2653061E+00 -0.2968805E-05  0.0000000E+00 -0.8566654E-01
  0.1040816E+01  0.0000000E+00  0.2653061E+00 -0.7536258E-05  0.0000000E+00 -0.8566822E-01
  0.1081633E+01  0.0000000E+00  0.2653061E+00 -0.1200172E-04  0.0000000E+00 -0.8567138E-01
  0.1122449E+01  0.0000000E+00  0.2653061E+00 -0.1628527E-04  0.0000000E+00 -0.8567600E-01
  0.1163265E+01  0.0000000E+00  0.2653061E+00 -0.2030715E-04  0.0000000E+00 -0.8568198E-01
  0.1204082E+01  0.0000000E+00  0.2653061E+00 -0.2399783E-04  0.0000000E+00 -0.8568923E-01
  0.1244898E+01  0.0000000E+00  0.2653061E+00 -0.2729659E-04  0.0000000E+00 -0.8569763E-01
  0.1285714E+01  0.0000000E+00  0.2653061E+00 -0.3014514E-04  0.0000000E+00 -0.8570705E-01
  0.1326531E+01  0.0000000E+00  0.2653061E+00 -0.3249727E-04  0.0000000E+00 -0.8571731E-01