title = "dataset feddes"
variables = "x", "y", "z", "vx", "vy", "vz"
zone t = "velocities, solution time =  2.300E+01 days        " i =   49, j =   49, k =    1,  f=point
  0.2040816E-01  0.0000000E+00  0.2040816E-01  0.1950869E-06  0.0000000E+00 -0.8593027E-01
  0.6122449E-01  0.0000000E+00  0.2040816E-01  0.5828194E-06  0.0000000E+00 -0.8592939E-01
  0.1020408E+00  0.0000000E+00  0.2040816E-01  0.9617786E-06  0.0000000E+00 -0.8592763E-01
  0.1428571E+00  0.0000000E+00  0.2040816E-01  0.1325809E-05  0.0000000E+00 -0.8592503E-01
  0.1836735E+00  0.0000000E+00  0.2040816E-01  0.1668040E-05  0.0000000E+00 -0.8592163E-01
  0.2244898E+00  0.0000000E+00  0.2040816E-01  0.1983381E-05  0.0000000E+00 -0.8591748E-01
  0.2653061E+00  0.0000000E+00  0.2040816E-01  0.2267172E-05  0.0000000E+00 -0.8591264E-01
  0.3061225E+00  0.0000000E+00  0.2040816E-01  0.2514051E-05  0.0000000E+00 -0.8590721E-01
  0.3469388E+00  0.0000000E+00  0.2040816E-01  0.2719587E-05  0.0000000E+00 -0.8590126E-01
  0.3877551E+00  0.0000000E+00  0.2040816E-01  0.2880215E-05  0.0000000E+00 -0.8589489E-01
  0.4285714E+00  0.0000000E+00  0.2040816E-01  0.2992908E-05  0.0000000E+00 -0.8588821E-01
  0.4693878E+00  0.0000000E+00  0.2040816E-01  0.3055239E-05  0.0000000E+00 -0.8588134E-01
  0.5102041E+00  0.0000000E+00  0.2040816E-01  0.3065551E-05  0.0000000E+00 -0.8587438E-01
  0.5510204E+00  0.0000000E+00  0.2040816E-01  0.3023061E-05  0.0000000E+00 -0.8586746E-01
  0.5918368E+00  0.0000000E+00  0.2040816E-01  0.2927888E-05  0.0000000E+00 -0.8586069E-01
  0.6326531E+00  0.0000000E+00  0.2040816E-01  0.2781061E-05  0.0000000E+00 -0.8585420E-01
  0.6734694E+00  0.0000000E+00  0.2040816E-01  0.2584520E-05  0.0000000E+00 -0.8584810E-01
  0.7142857E+00  0.0000000E+00  0.2040816E-01  0.2341116E-05  0.0000000E+00 -0.8584250E-01
  0.7551020E+00  0.0000000E+00  0.2040816E-01  0.2054595E-05  0.0000000E+00 -0.8583750E-01
  0.7959183E+00  0.0000000E+00  0.2040816E-01  0.1729554E-05  0.0000000E+00 -0.8583320E-01
  0.8367347E+00  0.0000000E+00  0.2040816E-01  0.1371372E-05  0.0000000E+00 -0.8582968E-01
  0.8775510E+00  0.0000000E+00  0.2040816E-01  0.9861194E-06  0.0000000E+00 -0.8582700E-01
  0.9183673E+00  0.0000000E+00  0.2040816E-01  0.5804368E-06  0.0000000E+00 -0.8582521E-01
  0.9591837E+00  0.0000000E+00  0.2040816E-01  0.1614370E-06  0.0000000E+00 -0.8582437E-01
  0.1000000E+01  0.0000000E+00  0.2040816E-01 -0.2636377E-06  0.0000000E+00 -0.8582449E-01
  0.1040816E+01  0.0000000E+00  0.2040816E-01 -0.6868286E-06  0.0000000E+00 -0.8582557E-01
  0.1081633E+01  0.0000000E+00  0.2040816E-01 -0.1101120E-05  0.0000000E+00 -0.8582760E-01
  0.1122449E+01  0.0000000E+00  0.2040816E-01 -0.1499691E-05  0.0000000E+00 -0.8583056E-01
  0.1163265E+01  0.0000000E+00  0.2040816E-01 -0.1874269E-05  0.0000000E+00 -0.8583439E-01
  0.1204082E+01  0.0000000E+00  0.2040816E-01 -0.2218872E-05  0.0000000E+00 -0.8583905E-01
  0.1244898E+01  0.0000000E+00  0.2040816E-01 -0.2528358E-05  0.0000000E+00 -0.8584444E-01
  0.1285714E+01  0.0000000E+00  0.2040816E-01 -0.2796874E-05  0.0000000E+00 -0.8585050E-01
  0.1326531E+01  0.0000000E+00  0.2040816E-01 -0.3019931E-05  0.0000000E+00 -0.8585711E-01
  0.1367347E+01  0.0000000E+00  0.2040816E-01 -0.3194272E-05  0.0000000E+00 -0.8586417E-01
  0.1408163E+01  0.0000000E+00  0.2040816E-01 -0.3317406E-05  0.0000000E+00 -0.8587158E-01
  0.1448980E+01  0.0000000E+00  0.2040816E-01 -0.3387616E-05  0.0000000E+00 -0.8587920E-01
  0.1489796E+01  0.0000000E+00  0.2040816E-01 -0.3404103E-05  0.0000000E+00 -0.8588692E-01
  0.1530612E+01  0.0000000E+00  0.2040816E-01 -0.3367013E-05  0.0000000E+00 -0.8589462E-01
  0.1571429E+01  0.0000000E+00  0.2040816E-01 -0.3277383E-05  0.0000000E+00 -0.8590217E-01
  0.1612245E+01  0.0000000E+00  0.2040816E-01 -0.3137058E-05  0.0000000E+00 -0.8590947E-01
  0.1653061E+01  0.0000000E+00  0.2040816E-01 -0.2948617E-05  0.0000000E+00 -0.8591639E-01
  0.1693878E+01  0.0000000E+00  0.2040816E-01 -0.2715312E-05  0.0000000E+00 -0.8592283E-01
  0.1734694E+01  0.0000000E+00  0.2040816E-01 -0.2441003E-05  0.0000000E+00 -0.8592869E-01
  0.1775510E+01  0.0000000E+00  0.2040816E-01 -0.2130087E-05  0.0000000E+00 -0.8593389E-01
  0.1816326E+01  0.0000000E+00  0.2040816E-01 -0.1787427E-05  0.0000000E+00 -0.8593834E-01
  0.1857143E+01  0.0000000E+00  0.2040816E-01 -0.1418281E-05  0.0000000E+00 -0.8594199E-01
  0.1897959E+01  0.0000000E+00  0.2040816E-01 -0.1028221E-05  0.0000000E+00 -0.8594477E-01
  0.1938776E+01  0.0000000E+00  0.2040816E-01 -0.6230741E-06  0.0000000E+00 -0.8594664E-01
  0.1989796E+01  0.0000000E+00  0.2040816E-01 -0.2088980E-06  0.0000000E+00 -0.8594759E-01
  0.2040816E-01  0.0000000E+00  0.6122449E-01  0.5349077E-06  0.0000000E+00 -0.8593104E-01
  0.6122449E-01  0.0000000E+00  0.6122449E-01  0.1597948E-05  0.0000000E+00 -0.8593015E-01
  0.1020408E+00  0.0000000E+00  0.6122449E-01  0.2636505E-05  0.0000000E+00 -0.8592836E-01
  0.1428571E+00  0.0000000E+00  0.6122449E-01  0.3633999E-05  0.0000000E+00 -0.8592573E-01
  0.1836735E+00  0.0000000E+00  0.6122449E-01  0.4572415E-05  0.0000000E+00 -0.8592228E-01
  0.2244898E+00  0.0000000E+00  0.6122449E-01  0.5437177E-05  0.0000000E+00 -0.8591806E-01
  0.2653061E+00  0.0000000E+00  0.6122449E-01  0.6215221E-05  0.0000000E+00 -0.8591316E-01
  0.3061225E+00  0.0000000E+00  0.6122449E-01  0.6892228E-05  0.0000000E+00 -0.8590765E-01
  0.3469388E+00  0.0000000E+00  0.6122449E-01  0.7456108E-05  0.0000000E+00 -0.8590161E-01
  0.3877551E+00  0.0000000E+00  0.6122449E-01  0.7896960E-05  0.0000000E+00 -0.8589515E-01
  0.4285714E+00  0.0000000E+00  0.6122449E-01  0.8206419E-05  0.0000000E+00 -0.8588838E-01
  0.4693878E+00  0.0000000E+00  0.6122449E-01  0.8377825E-05  0.0000000E+00 -0.8588140E-01
  0.5102041E+00  0.0000000E+00  0.6122449E-01  0.8406632E-05  0.0000000E+00 -0.8587433E-01
  0.5510204E+00  0.0000000E+00  0.6122449E-01  0.8290674E-05  0.0000000E+00 -0.8586731E-01
  0.5918368E+00  0.0000000E+00  0.6122449E-01  0.8030242E-05  0.0000000E+00 -0.8586044E-01
  0.6326531E+00  0.0000000E+00  0.6122449E-01  0.7628122E-05  0.0000000E+00 -0.8585385E-01
  0.6734694E+00  0.0000000E+00  0.6122449E-01  0.7089608E-05  0.0000000E+00 -0.8584765E-01
  0.7142857E+00  0.0000000E+00  0.6122449E-01  0.6422501E-05  0.0000000E+00 -0.8584196E-01
  0.7551020E+00  0.0000000E+00  0.6122449E-01  0.5637056E-05  0.0000000E+00 -0.8583688E-01
  0.7959183E+00  0.0000000E+00  0.6122449E-01  0.4745878E-05  0.0000000E+00 -0.8583251E-01
  0.8367347E+00  0.0000000E+00  0.6122449E-01  0.3763725E-05  0.0000000E+00 -0.8582892E-01
  0.8775510E+00  0.0000000E+00  0.6122449E-01  0.2707237E-05  0.0000000E+00 -0.8582619E-01
  0.9183673E+00  0.0000000E+00  0.6122449E-01  0.1594611E-05  0.0000000E+00 -0.8582438E-01
  0.9591837E+00  0.0000000E+00  0.6122449E-01  0.4455850E-06  0.0000000E+00 -0.8582352E-01
  0.1000000E+01  0.0000000E+00  0.6122449E-01 -0.7201427E-06  0.0000000E+00 -0.8582363E-01
  0.1040816E+01  0.0000000E+00  0.6122449E-01 -0.1881245E-05  0.0000000E+00 -0.8582472E-01
  0.1081633E+01  0.0000000E+00  0.6122449E-01 -0.3017394E-05  0.0000000E+00 -0.8582678E-01
  0.1122449E+01  0.0000000E+00  0.6122449E-01 -0.4110048E-05  0.0000000E+00 -0.8582977E-01
  0.1163265E+01  0.0000000E+00  0.6122449E-01 -0.5137536E-05  0.0000000E+00 -0.8583366E-01
  0.1204082E+01  0.0000000E+00  0.6122449E-01 -0.6082708E-05  0.0000000E+00 -0.8583838E-01
  0.1244898E+01  0.0000000E+00  0.6122449E-01 -0.6931093E-05  0.0000000E+00 -0.8584385E-01
  0.1285714E+01  0.0000000E+00  0.6122449E-01 -0.7667113E-05  0.0000000E+00 -0.8584999E-01
  0.1326531E+01  0.0000000E+00  0.6122449E-01 -0.8278547E-05  0.0000000E+00 -0.8585670E-01
  0.1367347E+01  0.0000000E+00  0.6122449E-01 -0.8756338E-05  0.0000000E+00 -0.8586387E-01
  0.1408163E+01  0.0000000E+00  0.6122449E-01 -0.9093616E-05  0.0000000E+00 -0.8587137E-01
  0.1448980E+01  0.0000000E+00  0.6122449E-01 -0.9285726E-05  0.0000000E+00 -0.8587910E-01
  0.1489796E+01  0.0000000E+00  0.6122449E-01 -0.9330533E-05  0.0000000E+00 -0.8588693E-01
  0.1530612E+01  0.0000000E+00  0.6122449E-01 -0.9228481E-05  0.0000000E+00 -0.8589474E-01
  0.1571429E+01  0.0000000E+00  0.6122449E-01 -0.8982436E-05  0.0000000E+00 -0.8590239E-01
  0.1612245E+01  0.0000000E+00  0.6122449E-01 -0.8597474E-05  0.0000000E+00 -0.8590979E-01
  0.1653061E+01  0.0000000E+00  0.6122449E-01 -0.8080688E-05  0.0000000E+00 -0.8591680E-01
  0.1693878E+01  0.0000000E+00  0.6122449E-01 -0.7441013E-05  0.0000000E+00 -0.8592332E-01
  0.1734694E+01  0.0000000E+00  0.6122449E-01 -0.6689045E-05  0.0000000E+00 -0.8592926E-01
  0.1775510E+01  0.0000000E+00  0.6122449E-01 -0.5836844E-05  0.0000000E+00 -0.8593453E-01
  0.1816326E+01  0.0000000E+00  0.6122449E-01 -0.4897741E-05  0.0000000E+00 -0.8593904E-01
  0.1857143E+01  0.0000000E+00  0.6122449E-01 -0.3886132E-05  0.0000000E+00 -0.8594273E-01
  0.1897959E+01  0.0000000E+00  0.6122449E-01 -0.2817272E-05  0.0000000E+00 -0.8594555E-01
  0.1938776E+01  0.0000000E+00  0.6122449E-01 -0.1707083E-05  0.0000000E+00 -0.8594745E-01
  0.1989796E+01  0.0000000E+00  0.6122449E-01 -0.5722398E-06  0.0000000E+00 -0.8594841E-01
  0.2040816E-01  0.0000000E+00  0.1020408E+00  0.8035367E-06  0.0000000E+00 -0.8593237E-01
  0.6122449E-01  0.0000000E+00  0.1020408E+00  0.2400324E-05  0.0000000E+00 -0.8593146E-01
  0.1020408E+00  0.0000000E+00  0.1020408E+00  0.3959941E-05  0.0000000E+00 -0.8592963E-01
  0.1428571E+00  0.0000000E+00  0.1020408E+00  0.5457644E-05  0.0000000E+00 -0.8592693E-01
  0.1836735E+00  0.0000000E+00  0.1020408E+00  0.6867620E-05  0.0000000E+00 -0.8592340E-01
  0.2244898E+00  0.0000000E+00  0.1020408E+00  0.8167253E-05  0.0000000E+00 -0.8591908E-01
  0.2653061E+00  0.0000000E+00  0.1020408E+00  0.9336442E-05  0.0000000E+00 -0.8591406E-01
  0.3061225E+00  0.0000000E+00  0.1020408E+00  0.1035422E-04  0.0000000E+00 -0.8590841E-01
  0.3469388E+00  0.0000000E+00  0.1020408E+00  0.1120252E-04  0.0000000E+00 -0.8590223E-01
  0.3877551E+00  0.0000000E+00  0.1020408E+00  0.1186624E-04  0.0000000E+00 -0.8589560E-01
  0.4285714E+00  0.0000000E+00  0.1020408E+00  0.1233269E-04  0.0000000E+00 -0.8588866E-01
  0.4693878E+00  0.0000000E+00  0.1020408E+00  0.1259181E-04  0.0000000E+00 -0.8588150E-01
  0.5102041E+00  0.0000000E+00  0.1020408E+00  0.1263674E-04  0.0000000E+00 -0.8587425E-01
  0.5510204E+00  0.0000000E+00  0.1020408E+00  0.1246414E-04  0.0000000E+00 -0.8586704E-01
  0.5918368E+00  0.0000000E+00  0.1020408E+00  0.1207435E-04  0.0000000E+00 -0.8585999E-01
  0.6326531E+00  0.0000000E+00  0.1020408E+00  0.1147148E-04  0.0000000E+00 -0.8585322E-01
  0.6734694E+00  0.0000000E+00  0.1020408E+00  0.1066338E-04  0.0000000E+00 -0.8584686E-01
  0.7142857E+00  0.0000000E+00  0.1020408E+00  0.9661732E-05  0.0000000E+00 -0.8584101E-01
  0.7551020E+00  0.0000000E+00  0.1020408E+00  0.8481913E-05  0.0000000E+00 -0.8583579E-01
  0.7959183E+00  0.0000000E+00  0.1020408E+00  0.7142851E-05  0.0000000E+00 -0.8583129E-01
  0.8367347E+00  0.0000000E+00  0.1020408E+00  0.5666743E-05  0.0000000E+00 -0.8582760E-01
  0.8775510E+00  0.0000000E+00  0.1020408E+00  0.4078631E-05  0.0000000E+00 -0.8582479E-01
  0.9183673E+00  0.0000000E+00  0.1020408E+00  0.2405871E-05  0.0000000E+00 -0.8582292E-01
  0.9591837E+00  0.0000000E+00  0.1020408E+00  0.6782277E-06  0.0000000E+00 -0.8582202E-01
  0.1000000E+01  0.0000000E+00  0.1020408E+00 -0.1074317E-05  0.0000000E+00 -0.8582212E-01
  0.1040816E+01  0.0000000E+00  0.1020408E+00 -0.2820617E-05  0.0000000E+00 -0.8582323E-01
  0.1081633E+01  0.0000000E+00  0.1020408E+00 -0.4528946E-05  0.0000000E+00 -0.8582533E-01
  0.1122449E+01  0.0000000E+00  0.1020408E+00 -0.6171115E-05  0.0000000E+00 -0.8582840E-01
  0.1163265E+01  0.0000000E+00  0.1020408E+00 -0.7716012E-05  0.0000000E+00 -0.8583238E-01
  0.1204082E+01  0.0000000E+00  0.1020408E+00 -0.9136957E-05  0.0000000E+00 -0.8583721E-01
  0.1244898E+01  0.0000000E+00  0.1020408E+00 -0.1041157E-04  0.0000000E+00 -0.8584282E-01
  0.1285714E+01  0.0000000E+00  0.1020408E+00 -0.1151711E-04  0.0000000E+00 -0.8584911E-01
  0.1326531E+01  0.0000000E+00  0.1020408E+00 -0.1243538E-04  0.0000000E+00 -0.8585598E-01
  0.1367347E+01  0.0000000E+00  0.1020408E+00 -0.1315258E-04  0.0000000E+00 -0.8586332E-01
  0.1408163E+01  0.0000000E+00  0.1020408E+00 -0.1365836E-04  0.0000000E+00 -0.8587101E-01
  0.1448980E+01  0.0000000E+00  0.1020408E+00 -0.1394585E-04  0.0000000E+00 -0.8587893E-01
  0.1489796E+01  0.0000000E+00  0.1020408E+00 -0.1401198E-04  0.0000000E+00 -0.8588694E-01
  0.1530612E+01  0.0000000E+00  0.1020408E+00 -0.1385753E-04  0.0000000E+00 -0.8589493E-01
  0.1571429E+01  0.0000000E+00  0.1020408E+00 -0.1348688E-04  0.0000000E+00 -0.8590277E-01
  0.1612245E+01  0.0000000E+00  0.1020408E+00 -0.1290774E-04  0.0000000E+00 -0.8591033E-01
  0.1653061E+01  0.0000000E+00  0.1020408E+00 -0.1213082E-04  0.0000000E+00 -0.8591751E-01
  0.1693878E+01  0.0000000E+00  0.1020408E+00 -0.1116961E-04  0.0000000E+00 -0.8592418E-01
  0.1734694E+01  0.0000000E+00  0.1020408E+00 -0.1004006E-04  0.0000000E+00 -0.8593026E-01
  0.1775510E+01  0.0000000E+00  0.1020408E+00 -0.8760325E-05  0.0000000E+00 -0.8593564E-01
  0.1816326E+01  0.0000000E+00  0.1020408E+00 -0.7350402E-05  0.0000000E+00 -0.8594026E-01
  0.1857143E+01  0.0000000E+00  0.1020408E+00 -0.5831891E-05  0.0000000E+00 -0.8594403E-01
  0.1897959E+01  0.0000000E+00  0.1020408E+00 -0.4227646E-05  0.0000000E+00 -0.8594691E-01
  0.1938776E+01  0.0000000E+00  0.1020408E+00 -0.2561507E-05  0.0000000E+00 -0.8594886E-01
  0.1989796E+01  0.0000000E+00  0.1020408E+00 -0.8584538E-06  0.0000000E+00 -0.8594983E-01
  0.2040816E-01  0.0000000E+00  0.1428571E+00  0.1038917E-05  0.0000000E+00 -0.8593418E-01
  0.6122449E-01  0.0000000E+00  0.1428571E+00  0.3103199E-05  0.0000000E+00 -0.8593324E-01
  0.1020408E+00  0.0000000E+00  0.1428571E+00  0.5119511E-05  0.0000000E+00 -0.8593135E-01
  0.1428571E+00  0.0000000E+00  0.1428571E+00  0.7055725E-05  0.0000000E+00 -0.8592857E-01
  0.1836735E+00  0.0000000E+00  0.1428571E+00  0.8879298E-05  0.0000000E+00 -0.8592492E-01
  0.2244898E+00  0.0000000E+00  0.1428571E+00  0.1056079E-04  0.0000000E+00 -0.8592047E-01
  0.2653061E+00  0.0000000E+00  0.1428571E+00  0.1207384E-04  0.0000000E+00 -0.8591528E-01
  0.3061225E+00  0.0000000E+00  0.1428571E+00  0.1339169E-04  0.0000000E+00 -0.8590945E-01
  0.3469388E+00  0.0000000E+00  0.1428571E+00  0.1449099E-04  0.0000000E+00 -0.8590306E-01
  0.3877551E+00  0.0000000E+00  0.1428571E+00  0.1535203E-04  0.0000000E+00 -0.8589621E-01
  0.4285714E+00  0.0000000E+00  0.1428571E+00  0.1595821E-04  0.0000000E+00 -0.8588903E-01
  0.4693878E+00  0.0000000E+00  0.1428571E+00  0.1629643E-04  0.0000000E+00 -0.8588163E-01
  0.5102041E+00  0.0000000E+00  0.1428571E+00  0.1635768E-04  0.0000000E+00 -0.8587414E-01
  0.5510204E+00  0.0000000E+00  0.1428571E+00  0.1613749E-04  0.0000000E+00 -0.8586667E-01
  0.5918368E+00  0.0000000E+00  0.1428571E+00  0.1563612E-04  0.0000000E+00 -0.8585937E-01
  0.6326531E+00  0.0000000E+00  0.1428571E+00  0.1485869E-04  0.0000000E+00 -0.8585236E-01
  0.6734694E+00  0.0000000E+00  0.1428571E+00  0.1381526E-04  0.0000000E+00 -0.8584576E-01
  0.7142857E+00  0.0000000E+00  0.1428571E+00  0.1252081E-04  0.0000000E+00 -0.8583970E-01
  0.7551020E+00  0.0000000E+00  0.1428571E+00  0.1099518E-04  0.0000000E+00 -0.8583429E-01
  0.7959183E+00  0.0000000E+00  0.1428571E+00  0.9262851E-05  0.0000000E+00 -0.8582962E-01
  0.8367347E+00  0.0000000E+00  0.1428571E+00  0.7352530E-05  0.0000000E+00 -0.8582578E-01
  0.8775510E+00  0.0000000E+00  0.1428571E+00  0.5296676E-05  0.0000000E+00 -0.8582286E-01
  0.9183673E+00  0.0000000E+00  0.1428571E+00  0.3130953E-05  0.0000000E+00 -0.8582090E-01
  0.9591837E+00  0.0000000E+00  0.1428571E+00  0.8935543E-06  0.0000000E+00 -0.8581996E-01
  0.1000000E+01  0.0000000E+00  0.1428571E+00 -0.1375867E-05  0.0000000E+00 -0.8582006E-01
  0.1040816E+01  0.0000000E+00  0.1428571E+00 -0.3637434E-05  0.0000000E+00 -0.8582119E-01
  0.1081633E+01  0.0000000E+00  0.1428571E+00 -0.5849899E-05  0.0000000E+00 -0.8582335E-01
  0.1122449E+01  0.0000000E+00  0.1428571E+00 -0.7975921E-05  0.0000000E+00 -0.8582651E-01
  0.1163265E+01  0.0000000E+00  0.1428571E+00 -0.9976022E-05  0.0000000E+00 -0.8583062E-01
  0.1204082E+01  0.0000000E+00  0.1428571E+00 -0.1181533E-04  0.0000000E+00 -0.8583561E-01
  0.1244898E+01  0.0000000E+00  0.1428571E+00 -0.1346433E-04  0.0000000E+00 -0.8584140E-01
  0.1285714E+01  0.0000000E+00  0.1428571E+00 -0.1489405E-04  0.0000000E+00 -0.8584790E-01
  0.1326531E+01  0.0000000E+00  0.1428571E+00 -0.1608105E-04  0.0000000E+00 -0.8585499E-01
  0.1367347E+01  0.0000000E+00  0.1428571E+00 -0.1700741E-04  0.0000000E+00 -0.8586257E-01
  0.1408163E+01  0.0000000E+00  0.1428571E+00 -0.1765980E-04  0.0000000E+00 -0.8587051E-01
  0.1448980E+01  0.0000000E+00  0.1428571E+00 -0.1802952E-04  0.0000000E+00 -0.8587868E-01
  0.1489796E+01  0.0000000E+00  0.1428571E+00 -0.1811281E-04  0.0000000E+00 -0.8588695E-01
  0.1530612E+01  0.0000000E+00  0.1428571E+00 -0.1791087E-04  0.0000000E+00 -0.8589519E-01
  0.1571429E+01  0.0000000E+00  0.1428571E+00 -0.1742952E-04  0.0000000E+00 -0.8590328E-01
  0.1612245E+01  0.0000000E+00  0.1428571E+00 -0.1667888E-04  0.0000000E+00 -0.8591107E-01
  0.1653061E+01  0.0000000E+00  0.1428571E+00 -0.1567298E-04  0.0000000E+00 -0.8591847E-01
  0.1693878E+01  0.0000000E+00  0.1428571E+00 -0.1442934E-04  0.0000000E+00 -0.8592535E-01
  0.1734694E+01  0.0000000E+00  0.1428571E+00 -0.1296868E-04  0.0000000E+00 -0.8593161E-01
  0.1775510E+01  0.0000000E+00  0.1428571E+00 -0.1131449E-04  0.0000000E+00 -0.8593715E-01
  0.1816326E+01  0.0000000E+00  0.1428571E+00 -0.9492654E-05  0.0000000E+00 -0.8594190E-01
  0.1857143E+01  0.0000000E+00  0.1428571E+00 -0.7531008E-05  0.0000000E+00 -0.8594579E-01
  0.1897959E+01  0.0000000E+00  0.1428571E+00 -0.5458988E-05  0.0000000E+00 -0.8594876E-01
  0.1938776E+01  0.0000000E+00  0.1428571E+00 -0.3307405E-05  0.0000000E+00 -0.8595076E-01
  0.1989796E+01  0.0000000E+00  0.1428571E+00 -0.1108222E-05  0.0000000E+00 -0.8595176E-01
  0.2040816E-01  0.0000000E+00  0.1836735E+00  0.1254053E-05  0.0000000E+00 -0.8593642E-01
  0.6122449E-01  0.0000000E+00  0.1836735E+00  0.3745360E-05  0.0000000E+00 -0.8593543E-01
  0.1020408E+00  0.0000000E+00  0.1836735E+00  0.6179023E-05  0.0000000E+00 -0.8593348E-01
  0.1428571E+00  0.0000000E+00  0.1836735E+00  0.8516280E-05  0.0000000E+00 -0.8593059E-01
  0.1836735E+00  0.0000000E+00  0.1836735E+00  0.1071841E-04  0.0000000E+00 -0.8592680E-01
  0.2244898E+00  0.0000000E+00  0.1836735E+00  0.1274988E-04  0.0000000E+00 -0.8592217E-01
  0.2653061E+00  0.0000000E+00  0.1836735E+00  0.1457863E-04  0.0000000E+00 -0.8591679E-01
  0.3061225E+00  0.0000000E+00  0.1836735E+00  0.1617259E-04  0.0000000E+00 -0.8591073E-01
  0.3469388E+00  0.0000000E+00  0.1836735E+00  0.1750354E-04  0.0000000E+00 -0.8590408E-01
  0.3877551E+00  0.0000000E+00  0.1836735E+00  0.1854746E-04  0.0000000E+00 -0.8589697E-01
  0.4285714E+00  0.0000000E+00  0.1836735E+00  0.1928411E-04  0.0000000E+00 -0.8588949E-01
  0.4693878E+00  0.0000000E+00  0.1836735E+00  0.1969746E-04  0.0000000E+00 -0.8588179E-01
  0.5102041E+00  0.0000000E+00  0.1836735E+00  0.1977641E-04  0.0000000E+00 -0.8587398E-01
  0.5510204E+00  0.0000000E+00  0.1836735E+00  0.1951529E-04  0.0000000E+00 -0.8586621E-01
  0.5918368E+00  0.0000000E+00  0.1836735E+00  0.1891415E-04  0.0000000E+00 -0.8585860E-01
  0.6326531E+00  0.0000000E+00  0.1836735E+00  0.1797891E-04  0.0000000E+00 -0.8585129E-01
  0.6734694E+00  0.0000000E+00  0.1836735E+00  0.1672150E-04  0.0000000E+00 -0.8584440E-01
  0.7142857E+00  0.0000000E+00  0.1836735E+00  0.1515985E-04  0.0000000E+00 -0.8583807E-01
  0.7551020E+00  0.0000000E+00  0.1836735E+00  0.1331784E-04  0.0000000E+00 -0.8583241E-01
  0.7959183E+00  0.0000000E+00  0.1836735E+00  0.1122500E-04  0.0000000E+00 -0.8582753E-01
  0.8367347E+00  0.0000000E+00  0.1836735E+00  0.8916056E-05  0.0000000E+00 -0.8582352E-01
  0.8775510E+00  0.0000000E+00  0.1836735E+00  0.6430213E-05  0.0000000E+00 -0.8582045E-01
  0.9183673E+00  0.0000000E+00  0.1836735E+00  0.3811062E-05  0.0000000E+00 -0.8581840E-01
  0.9591837E+00  0.0000000E+00  0.1836735E+00  0.1104528E-05  0.0000000E+00 -0.8581739E-01
  0.1000000E+01  0.0000000E+00  0.1836735E+00 -0.1640928E-05  0.0000000E+00 -0.8581747E-01
  0.1040816E+01  0.0000000E+00  0.1836735E+00 -0.4376864E-05  0.0000000E+00 -0.8581864E-01
  0.1081633E+01  0.0000000E+00  0.1836735E+00 -0.7053407E-05  0.0000000E+00 -0.8582088E-01
  0.1122449E+01  0.0000000E+00  0.1836735E+00 -0.9624672E-05  0.0000000E+00 -0.8582416E-01
  0.1163265E+01  0.0000000E+00  0.1836735E+00 -0.1204325E-04  0.0000000E+00 -0.8582842E-01
  0.1204082E+01  0.0000000E+00  0.1836735E+00 -0.1426677E-04  0.0000000E+00 -0.8583361E-01
  0.1244898E+01  0.0000000E+00  0.1836735E+00 -0.1625916E-04  0.0000000E+00 -0.8583963E-01
  0.1285714E+01  0.0000000E+00  0.1836735E+00 -0.1798567E-04  0.0000000E+00 -0.8584638E-01
  0.1326531E+01  0.0000000E+00  0.1836735E+00 -0.1941808E-04  0.0000000E+00 -0.8585375E-01
  0.1367347E+01  0.0000000E+00  0.1836735E+00 -0.2053479E-04  0.0000000E+00 -0.8586163E-01
  0.1408163E+01  0.0000000E+00  0.1836735E+00 -0.2131983E-04  0.0000000E+00 -0.8586988E-01
  0.1448980E+01  0.0000000E+00  0.1836735E+00 -0.2176296E-04  0.0000000E+00 -0.8587836E-01
  0.1489796E+01  0.0000000E+00  0.1836735E+00 -0.2185995E-04  0.0000000E+00 -0.8588695E-01
  0.1530612E+01  0.0000000E+00  0.1836735E+00 -0.2161253E-04  0.0000000E+00 -0.8589551E-01
  0.1571429E+01  0.0000000E+00  0.1836735E+00 -0.2102802E-04  0.0000000E+00 -0.8590390E-01
  0.1612245E+01  0.0000000E+00  0.1836735E+00 -0.2011890E-04  0.0000000E+00 -0.8591199E-01
  0.1653061E+01  0.0000000E+00  0.1836735E+00 -0.1890232E-04  0.0000000E+00 -0.8591965E-01
  0.1693878E+01  0.0000000E+00  0.1836735E+00 -0.1739962E-04  0.0000000E+00 -0.8592679E-01
  0.1734694E+01  0.0000000E+00  0.1836735E+00 -0.1563594E-04  0.0000000E+00 -0.8593327E-01
  0.1775510E+01  0.0000000E+00  0.1836735E+00 -0.1363970E-04  0.0000000E+00 -0.8593902E-01
  0.1816326E+01  0.0000000E+00  0.1836735E+00 -0.1144214E-04  0.0000000E+00 -0.8594394E-01
  0.1857143E+01  0.0000000E+00  0.1836735E+00 -0.9076762E-05  0.0000000E+00 -0.8594796E-01
  0.1897959E+01  0.0000000E+00  0.1836735E+00 -0.6578887E-05  0.0000000E+00 -0.8595103E-01
  0.1938776E+01  0.0000000E+00  0.1836735E+00 -0.3985693E-05  0.0000000E+00 -0.8595310E-01
  0.1989796E+01  0.0000000E+00  0.1836735E+00 -0.1335331E-05  0.0000000E+00 -0.8595415E-01
  0.2040816E-01  0.0000000E+00  0.2244898E+00  0.1456522E-05  0.0000000E+00 -0.8593905E-01
  0.6122449E-01  0.0000000E+00  0.2244898E+00  0.4349680E-05  0.0000000E+00 -0.8593802E-01
  0.1020408E+00  0.0000000E+00  0.2244898E+00  0.7176234E-05  0.0000000E+00 -0.8593598E-01
  0.1428571E+00  0.0000000E+00  0.2244898E+00  0.9891377E-05  0.0000000E+00 -0.8593296E-01
  0.1836735E+00  0.0000000E+00  0.2244898E+00  0.1245062E-04  0.0000000E+00 -0.8592901E-01
  0.2244898E+00  0.0000000E+00  0.2244898E+00  0.1481279E-04  0.0000000E+00 -0.8592419E-01
  0.2653061E+00  0.0000000E+00  0.2244898E+00  0.1694050E-04  0.0000000E+00 -0.8591856E-01
  0.3061225E+00  0.0000000E+00  0.2244898E+00  0.1879663E-04  0.0000000E+00 -0.8591223E-01
  0.3469388E+00  0.0000000E+00  0.2244898E+00  0.2034834E-04  0.0000000E+00 -0.8590529E-01
  0.3877551E+00  0.0000000E+00  0.2244898E+00  0.2156748E-04  0.0000000E+00 -0.8589785E-01
  0.4285714E+00  0.0000000E+00  0.2244898E+00  0.2243025E-04  0.0000000E+00 -0.8589004E-01
  0.4693878E+00  0.0000000E+00  0.2244898E+00  0.2291771E-04  0.0000000E+00 -0.8588198E-01
  0.5102041E+00  0.0000000E+00  0.2244898E+00  0.2301663E-04  0.0000000E+00 -0.8587380E-01
  0.5510204E+00  0.0000000E+00  0.2244898E+00  0.2272002E-04  0.0000000E+00 -0.8586566E-01
  0.5918368E+00  0.0000000E+00  0.2244898E+00  0.2202756E-04  0.0000000E+00 -0.8585768E-01
  0.6326531E+00  0.0000000E+00  0.2244898E+00  0.2094576E-04  0.0000000E+00 -0.8585001E-01
  0.6734694E+00  0.0000000E+00  0.2244898E+00  0.1948816E-04  0.0000000E+00 -0.8584279E-01
  0.7142857E+00  0.0000000E+00  0.2244898E+00  0.1767537E-04  0.0000000E+00 -0.8583614E-01
  0.7551020E+00  0.0000000E+00  0.2244898E+00  0.1553500E-04  0.0000000E+00 -0.8583019E-01
  0.7959183E+00  0.0000000E+00  0.2244898E+00  0.1310137E-04  0.0000000E+00 -0.8582505E-01
  0.8367347E+00  0.0000000E+00  0.2244898E+00  0.1041488E-04  0.0000000E+00 -0.8582083E-01
  0.8775510E+00  0.0000000E+00  0.2244898E+00  0.7521184E-05  0.0000000E+00 -0.8581759E-01
  0.9183673E+00  0.0000000E+00  0.2244898E+00  0.4471416E-05  0.0000000E+00 -0.8581542E-01
  0.9591837E+00  0.0000000E+00  0.2244898E+00  0.1319155E-05  0.0000000E+00 -0.8581435E-01
  0.1000000E+01  0.0000000E+00  0.2244898E+00 -0.1878864E-05  0.0000000E+00 -0.8581441E-01
  0.1040816E+01  0.0000000E+00  0.2244898E+00 -0.5065777E-05  0.0000000E+00 -0.8581562E-01
  0.1081633E+01  0.0000000E+00  0.2244898E+00 -0.8183338E-05  0.0000000E+00 -0.8581794E-01
  0.1122449E+01  0.0000000E+00  0.2244898E+00 -0.1117750E-04  0.0000000E+00 -0.8582136E-01
  0.1163265E+01  0.0000000E+00  0.2244898E+00 -0.1399314E-04  0.0000000E+00 -0.8582582E-01
  0.1204082E+01  0.0000000E+00  0.2244898E+00 -0.1658075E-04  0.0000000E+00 -0.8583123E-01
  0.1244898E+01  0.0000000E+00  0.2244898E+00 -0.1889794E-04  0.0000000E+00 -0.8583752E-01
  0.1285714E+01  0.0000000E+00  0.2244898E+00 -0.2090451E-04  0.0000000E+00 -0.8584458E-01
  0.1326531E+01  0.0000000E+00  0.2244898E+00 -0.2256776E-04  0.0000000E+00 -0.8585228E-01
  0.1367347E+01  0.0000000E+00  0.2244898E+00 -0.2386269E-04  0.0000000E+00 -0.8586051E-01
  0.1408163E+01  0.0000000E+00  0.2244898E+00 -0.2477098E-04  0.0000000E+00 -0.8586913E-01
  0.1448980E+01  0.0000000E+00  0.2244898E+00 -0.2528110E-04  0.0000000E+00 -0.8587799E-01
  0.1489796E+01  0.0000000E+00  0.2244898E+00 -0.2538855E-04  0.0000000E+00 -0.8588695E-01
  0.1530612E+01  0.0000000E+00  0.2244898E+00 -0.2509577E-04  0.0000000E+00 -0.8589588E-01
  0.1571429E+01  0.0000000E+00  0.2244898E+00 -0.2441168E-04  0.0000000E+00 -0.8590462E-01
  0.1612245E+01  0.0000000E+00  0.2244898E+00 -0.2335114E-04  0.0000000E+00 -0.8591306E-01
  0.1653061E+01  0.0000000E+00  0.2244898E+00 -0.2193443E-04  0.0000000E+00 -0.8592105E-01
  0.1693878E+01  0.0000000E+00  0.2244898E+00 -0.2018660E-04  0.0000000E+00 -0.8592847E-01
  0.1734694E+01  0.0000000E+00  0.2244898E+00 -0.1813702E-04  0.0000000E+00 -0.8593523E-01
  0.1775510E+01  0.0000000E+00  0.2244898E+00 -0.1581881E-04  0.0000000E+00 -0.8594121E-01
  0.1816326E+01  0.0000000E+00  0.2244898E+00 -0.1326824E-04  0.0000000E+00 -0.8594633E-01
  0.1857143E+01  0.0000000E+00  0.2244898E+00 -0.1052411E-04  0.0000000E+00 -0.8595052E-01
  0.1897959E+01  0.0000000E+00  0.2244898E+00 -0.7627178E-05  0.0000000E+00 -0.8595371E-01
  0.1938776E+01  0.0000000E+00  0.2244898E+00 -0.4620472E-05  0.0000000E+00 -0.8595586E-01
  0.1989796E+01  0.0000000E+00  0.2244898E+00 -0.1547861E-05  0.0000000E+00 -0.8595695E-01
  0.2040816E-01  0.0000000E+00  0.2653061E+00  0.1651498E-05  0.0000000E+00 -0.8594205E-01
  0.6122449E-01  0.0000000E+00  0.2653061E+00  0.4931720E-05  0.0000000E+00 -0.8594098E-01
  0.1020408E+00  0.0000000E+00  0.2653061E+00  0.8136885E-05  0.0000000E+00 -0.8593884E-01
  0.1428571E+00  0.0000000E+00  0.2653061E+00  0.1121655E-04  0.0000000E+00 -0.8593568E-01
  0.1836735E+00  0.0000000E+00  0.2653061E+00  0.1412078E-04  0.0000000E+00 -0.8593154E-01
  0.2244898E+00  0.0000000E+00  0.2653061E+00  0.1680304E-04  0.0000000E+00 -0.8592649E-01
  0.2653061E+00  0.0000000E+00  0.2653061E+00  0.1922082E-04  0.0000000E+00 -0.8592059E-01
  0.3061225E+00  0.0000000E+00  0.2653061E+00  0.2133217E-04  0.0000000E+00 -0.8591395E-01
  0.3469388E+00  0.0000000E+00  0.2653061E+00  0.2309971E-04  0.0000000E+00 -0.8590667E-01
  0.3877551E+00  0.0000000E+00  0.2653061E+00  0.2449122E-04  0.0000000E+00 -0.8589886E-01
  0.4285714E+00  0.0000000E+00  0.2653061E+00  0.2547932E-04  0.0000000E+00 -0.8589066E-01
  0.4693878E+00  0.0000000E+00  0.2653061E+00  0.2604210E-04  0.0000000E+00 -0.8588219E-01
  0.5102041E+00  0.0000000E+00  0.2653061E+00  0.2616406E-04  0.0000000E+00 -0.8587359E-01
  0.5510204E+00  0.0000000E+00  0.2653061E+00  0.2583676E-04  0.0000000E+00 -0.8586502E-01
  0.5918368E+00  0.0000000E+00  0.2653061E+00  0.2505928E-04  0.0000000E+00 -0.8585662E-01
  0.6326531E+00  0.0000000E+00  0.2653061E+00  0.2383852E-04  0.0000000E+00 -0.8584855E-01
  0.6734694E+00  0.0000000E+00  0.2653061E+00  0.2218941E-04  0.0000000E+00 -0.8584093E-01
  0.7142857E+00  0.0000000E+00  0.2653061E+00  0.2013500E-04  0.0000000E+00 -0.8583391E-01
  0.7551020E+00  0.0000000E+00  0.2653061E+00  0.1770645E-04  0.0000000E+00 -0.8582763E-01
  0.7959183E+00  0.0000000E+00  0.2653061E+00  0.1494267E-04  0.0000000E+00 -0.8582220E-01
  0.8367347E+00  0.0000000E+00  0.2653061E+00  0.1188958E-04  0.0000000E+00 -0.8581773E-01
  0.8775510E+00  0.0000000E+00  0.2653061E+00  0.8599218E-05  0.0000000E+00 -0.8581430E-01
  0.9183673E+00  0.0000000E+00  0.2653061E+00  0.5130020E-05  0.0000000E+00 -0.8581198E-01
  0.9591837E+00  0.0000000E+00  0.2653061E+00  0.1543283E-05  0.0000000E+00 -0.8581084E-01
  0.1000000E+01  0.0000000E+00  0.2653061E+00 -0.2096081E-05  0.0000000E+00 -0.8581088E-01
  0.1040816E+01  0.0000000E+00  0.2653061E+00 -0.5722829E-05  0.0000000E+00 -0.8581213E-01
  0.1081633E+01  0.0000000E+00  0.2653061E+00 -0.9270338E-05  0.0000000E+00 -0.8581456E-01
  0.1122449E+01  0.0000000E+00  0.2653061E+00 -0.1267648E-04  0.0000000E+00 -0.8581814E-01
  0.1163265E+01  0.0000000E+00  0.2653061E+00 -0.1587848E-04  0.0000000E+00 -0.8582281E-01
  0.1204082E+01  0.0000000E+00  0.2653061E+00 -0.1881977E-04  0.0000000E+00 -0.8582850E-01
  0.1244898E+01  0.0000000E+00  0.2653061E+00 -0.2145180E-04  0.0000000E+00 -0.8583510E-01
  0.1285714E+01  0.0000000E+00  0.2653061E+00 -0.2372905E-04  0.0000000E+00 -0.8584251E-01
  0.1326531E+01  0.0000000E+00  0.2653061E+00 -0.2561453E-04  0.0000000E+00 -0.8585059E-01