title = "dataset feddes"
variables = "x", "y", "z", "vx", "vy", "vz"
zone t = "velocities, solution time =  2.900E+01 days        " i =   49, j =   49, k =    1,  f=point
  0.2040816E-01  0.0000000E+00  0.2040816E-01  0.2700817E-06  0.0000000E+00 -0.8575780E-01
  0.6122449E-01  0.0000000E+00  0.2040816E-01  0.8064771E-06  0.0000000E+00 -0.8575657E-01
  0.1020408E+00  0.0000000E+00  0.2040816E-01  0.1330991E-05  0.0000000E+00 -0.8575415E-01
  0.1428571E+00  0.0000000E+00  0.2040816E-01  0.1834633E-05  0.0000000E+00 -0.8575055E-01
  0.1836735E+00  0.0000000E+00  0.2040816E-01  0.2307476E-05  0.0000000E+00 -0.8574584E-01
  0.2244898E+00  0.0000000E+00  0.2040816E-01  0.2743049E-05  0.0000000E+00 -0.8574010E-01
  0.2653061E+00  0.0000000E+00  0.2040816E-01  0.3135071E-05  0.0000000E+00 -0.8573342E-01
  0.3061225E+00  0.0000000E+00  0.2040816E-01  0.3475599E-05  0.0000000E+00 -0.8572590E-01
  0.3469388E+00  0.0000000E+00  0.2040816E-01  0.3758362E-05  0.0000000E+00 -0.8571768E-01
  0.3877551E+00  0.0000000E+00  0.2040816E-01  0.3978548E-05  0.0000000E+00 -0.8570889E-01
  0.4285714E+00  0.0000000E+00  0.2040816E-01  0.4132028E-05  0.0000000E+00 -0.8569967E-01
  0.4693878E+00  0.0000000E+00  0.2040816E-01  0.4215396E-05  0.0000000E+00 -0.8569018E-01
  0.5102041E+00  0.0000000E+00  0.2040816E-01  0.4226300E-05  0.0000000E+00 -0.8568059E-01
  0.5510204E+00  0.0000000E+00  0.2040816E-01  0.4163641E-05  0.0000000E+00 -0.8567105E-01
  0.5918368E+00  0.0000000E+00  0.2040816E-01  0.4027612E-05  0.0000000E+00 -0.8566174E-01
  0.6326531E+00  0.0000000E+00  0.2040816E-01  0.3819694E-05  0.0000000E+00 -0.8565282E-01
  0.6734694E+00  0.0000000E+00  0.2040816E-01  0.3542643E-05  0.0000000E+00 -0.8564445E-01
  0.7142857E+00  0.0000000E+00  0.2040816E-01  0.3200486E-05  0.0000000E+00 -0.8563679E-01
  0.7551020E+00  0.0000000E+00  0.2040816E-01  0.2798498E-05  0.0000000E+00 -0.8562997E-01
  0.7959183E+00  0.0000000E+00  0.2040816E-01  0.2343150E-05  0.0000000E+00 -0.8562413E-01
  0.8367347E+00  0.0000000E+00  0.2040816E-01  0.1842013E-05  0.0000000E+00 -0.8561937E-01
  0.8775510E+00  0.0000000E+00  0.2040816E-01  0.1303612E-05  0.0000000E+00 -0.8561580E-01
  0.9183673E+00  0.0000000E+00  0.2040816E-01  0.7372419E-06  0.0000000E+00 -0.8561348E-01
  0.9591837E+00  0.0000000E+00  0.2040816E-01  0.1527965E-06  0.0000000E+00 -0.8561247E-01
  0.1000000E+01  0.0000000E+00  0.2040816E-01 -0.4390862E-06  0.0000000E+00 -0.8561279E-01
  0.1040816E+01  0.0000000E+00  0.2040816E-01 -0.1027768E-05  0.0000000E+00 -0.8561446E-01
  0.1081633E+01  0.0000000E+00  0.2040816E-01 -0.1603857E-05  0.0000000E+00 -0.8561745E-01
  0.1122449E+01  0.0000000E+00  0.2040816E-01 -0.2157143E-05  0.0000000E+00 -0.8562173E-01
  0.1163265E+01  0.0000000E+00  0.2040816E-01 -0.2675761E-05  0.0000000E+00 -0.8562722E-01
  0.1204082E+01  0.0000000E+00  0.2040816E-01 -0.3152144E-05  0.0000000E+00 -0.8563384E-01
  0.1244898E+01  0.0000000E+00  0.2040816E-01 -0.3579463E-05  0.0000000E+00 -0.8564149E-01
  0.1285714E+01  0.0000000E+00  0.2040816E-01 -0.3949070E-05  0.0000000E+00 -0.8565005E-01
  0.1326531E+01  0.0000000E+00  0.2040816E-01 -0.4254720E-05  0.0000000E+00 -0.8565937E-01
  0.1367347E+01  0.0000000E+00  0.2040816E-01 -0.4492200E-05  0.0000000E+00 -0.8566931E-01
  0.1408163E+01  0.0000000E+00  0.2040816E-01 -0.4658277E-05  0.0000000E+00 -0.8567971E-01
  0.1448980E+01  0.0000000E+00  0.2040816E-01 -0.4750665E-05  0.0000000E+00 -0.8569041E-01
  0.1489796E+01  0.0000000E+00  0.2040816E-01 -0.4768329E-05  0.0000000E+00 -0.8570123E-01
  0.1530612E+01  0.0000000E+00  0.2040816E-01 -0.4711590E-05  0.0000000E+00 -0.8571200E-01
  0.1571429E+01  0.0000000E+00  0.2040816E-01 -0.4582019E-05  0.0000000E+00 -0.8572256E-01
  0.1612245E+01  0.0000000E+00  0.2040816E-01 -0.4382298E-05  0.0000000E+00 -0.8573275E-01
  0.1653061E+01  0.0000000E+00  0.2040816E-01 -0.4116117E-05  0.0000000E+00 -0.8574241E-01
  0.1693878E+01  0.0000000E+00  0.2040816E-01 -0.3788071E-05  0.0000000E+00 -0.8575140E-01
  0.1734694E+01  0.0000000E+00  0.2040816E-01 -0.3403555E-05  0.0000000E+00 -0.8575957E-01
  0.1775510E+01  0.0000000E+00  0.2040816E-01 -0.2968667E-05  0.0000000E+00 -0.8576682E-01
  0.1816326E+01  0.0000000E+00  0.2040816E-01 -0.2490137E-05  0.0000000E+00 -0.8577302E-01
  0.1857143E+01  0.0000000E+00  0.2040816E-01 -0.1975238E-05  0.0000000E+00 -0.8577810E-01
  0.1897959E+01  0.0000000E+00  0.2040816E-01 -0.1431655E-05  0.0000000E+00 -0.8578197E-01
  0.1938776E+01  0.0000000E+00  0.2040816E-01 -0.8673551E-06  0.0000000E+00 -0.8578458E-01
  0.1989796E+01  0.0000000E+00  0.2040816E-01 -0.2905638E-06  0.0000000E+00 -0.8578590E-01
  0.2040816E-01  0.0000000E+00  0.6122449E-01  0.7406156E-06  0.0000000E+00 -0.8575887E-01
  0.6122449E-01  0.0000000E+00  0.6122449E-01  0.2211457E-05  0.0000000E+00 -0.8575763E-01
  0.1020408E+00  0.0000000E+00  0.6122449E-01  0.3648690E-05  0.0000000E+00 -0.8575516E-01
  0.1428571E+00  0.0000000E+00  0.6122449E-01  0.5028652E-05  0.0000000E+00 -0.8575151E-01
  0.1836735E+00  0.0000000E+00  0.6122449E-01  0.6325554E-05  0.0000000E+00 -0.8574674E-01
  0.2244898E+00  0.0000000E+00  0.6122449E-01  0.7520228E-05  0.0000000E+00 -0.8574092E-01
  0.2653061E+00  0.0000000E+00  0.6122449E-01  0.8594940E-05  0.0000000E+00 -0.8573414E-01
  0.3061225E+00  0.0000000E+00  0.6122449E-01  0.9528740E-05  0.0000000E+00 -0.8572652E-01
  0.3469388E+00  0.0000000E+00  0.6122449E-01  0.1030459E-04  0.0000000E+00 -0.8571817E-01
  0.3877551E+00  0.0000000E+00  0.6122449E-01  0.1090902E-04  0.0000000E+00 -0.8570925E-01
  0.4285714E+00  0.0000000E+00  0.6122449E-01  0.1133057E-04  0.0000000E+00 -0.8569989E-01
  0.4693878E+00  0.0000000E+00  0.6122449E-01  0.1155989E-04  0.0000000E+00 -0.8569026E-01
  0.5102041E+00  0.0000000E+00  0.6122449E-01  0.1159056E-04  0.0000000E+00 -0.8568052E-01
  0.5510204E+00  0.0000000E+00  0.6122449E-01  0.1141954E-04  0.0000000E+00 -0.8567084E-01
  0.5918368E+00  0.0000000E+00  0.6122449E-01  0.1104731E-04  0.0000000E+00 -0.8566139E-01
  0.6326531E+00  0.0000000E+00  0.6122449E-01  0.1047788E-04  0.0000000E+00 -0.8565233E-01
  0.6734694E+00  0.0000000E+00  0.6122449E-01  0.9718767E-05  0.0000000E+00 -0.8564382E-01
  0.7142857E+00  0.0000000E+00  0.6122449E-01  0.8780980E-05  0.0000000E+00 -0.8563604E-01
  0.7551020E+00  0.0000000E+00  0.6122449E-01  0.7678971E-05  0.0000000E+00 -0.8562911E-01
  0.7959183E+00  0.0000000E+00  0.6122449E-01  0.6430483E-05  0.0000000E+00 -0.8562316E-01
  0.8367347E+00  0.0000000E+00  0.6122449E-01  0.5056291E-05  0.0000000E+00 -0.8561832E-01
  0.8775510E+00  0.0000000E+00  0.6122449E-01  0.3579763E-05  0.0000000E+00 -0.8561468E-01
  0.9183673E+00  0.0000000E+00  0.6122449E-01  0.2026350E-05  0.0000000E+00 -0.8561232E-01
  0.9591837E+00  0.0000000E+00  0.6122449E-01  0.4237406E-06  0.0000000E+00 -0.8561128E-01
  0.1000000E+01  0.0000000E+00  0.6122449E-01 -0.1199784E-05  0.0000000E+00 -0.8561160E-01
  0.1040816E+01  0.0000000E+00  0.6122449E-01 -0.2815187E-05  0.0000000E+00 -0.8561329E-01
  0.1081633E+01  0.0000000E+00  0.6122449E-01 -0.4394734E-05  0.0000000E+00 -0.8561631E-01
  0.1122449E+01  0.0000000E+00  0.6122449E-01 -0.5911385E-05  0.0000000E+00 -0.8562064E-01
  0.1163265E+01  0.0000000E+00  0.6122449E-01 -0.7334332E-05  0.0000000E+00 -0.8562621E-01
  0.1204082E+01  0.0000000E+00  0.6122449E-01 -0.8641110E-05  0.0000000E+00 -0.8563293E-01
  0.1244898E+01  0.0000000E+00  0.6122449E-01 -0.9812342E-05  0.0000000E+00 -0.8564069E-01
  0.1285714E+01  0.0000000E+00  0.6122449E-01 -0.1082535E-04  0.0000000E+00 -0.8564936E-01
  0.1326531E+01  0.0000000E+00  0.6122449E-01 -0.1166318E-04  0.0000000E+00 -0.8565882E-01
  0.1367347E+01  0.0000000E+00  0.6122449E-01 -0.1231402E-04  0.0000000E+00 -0.8566890E-01
  0.1408163E+01  0.0000000E+00  0.6122449E-01 -0.1276888E-04  0.0000000E+00 -0.8567944E-01
  0.1448980E+01  0.0000000E+00  0.6122449E-01 -0.1302159E-04  0.0000000E+00 -0.8569029E-01
  0.1489796E+01  0.0000000E+00  0.6122449E-01 -0.1306941E-04  0.0000000E+00 -0.8570125E-01
  0.1530612E+01  0.0000000E+00  0.6122449E-01 -0.1291329E-04  0.0000000E+00 -0.8571218E-01
  0.1571429E+01  0.0000000E+00  0.6122449E-01 -0.1255759E-04  0.0000000E+00 -0.8572288E-01
  0.1612245E+01  0.0000000E+00  0.6122449E-01 -0.1200969E-04  0.0000000E+00 -0.8573321E-01
  0.1653061E+01  0.0000000E+00  0.6122449E-01 -0.1127971E-04  0.0000000E+00 -0.8574300E-01
  0.1693878E+01  0.0000000E+00  0.6122449E-01 -0.1038028E-04  0.0000000E+00 -0.8575210E-01
  0.1734694E+01  0.0000000E+00  0.6122449E-01 -0.9326223E-05  0.0000000E+00 -0.8576038E-01
  0.1775510E+01  0.0000000E+00  0.6122449E-01 -0.8134279E-05  0.0000000E+00 -0.8576772E-01
  0.1816326E+01  0.0000000E+00  0.6122449E-01 -0.6822877E-05  0.0000000E+00 -0.8577400E-01
  0.1857143E+01  0.0000000E+00  0.6122449E-01 -0.5411915E-05  0.0000000E+00 -0.8577914E-01
  0.1897959E+01  0.0000000E+00  0.6122449E-01 -0.3922429E-05  0.0000000E+00 -0.8578307E-01
  0.1938776E+01  0.0000000E+00  0.6122449E-01 -0.2376222E-05  0.0000000E+00 -0.8578571E-01
  0.1989796E+01  0.0000000E+00  0.6122449E-01 -0.7960810E-06  0.0000000E+00 -0.8578705E-01
  0.2040816E-01  0.0000000E+00  0.1020408E+00  0.1112563E-05  0.0000000E+00 -0.8576072E-01
  0.6122449E-01  0.0000000E+00  0.1020408E+00  0.3322312E-05  0.0000000E+00 -0.8575945E-01
  0.1020408E+00  0.0000000E+00  0.1020408E+00  0.5480524E-05  0.0000000E+00 -0.8575693E-01
  0.1428571E+00  0.0000000E+00  0.1020408E+00  0.7552494E-05  0.0000000E+00 -0.8575319E-01
  0.1836735E+00  0.0000000E+00  0.1020408E+00  0.9501666E-05  0.0000000E+00 -0.8574830E-01
  0.2244898E+00  0.0000000E+00  0.1020408E+00  0.1129750E-04  0.0000000E+00 -0.8574233E-01
  0.2653061E+00  0.0000000E+00  0.1020408E+00  0.1291250E-04  0.0000000E+00 -0.8573539E-01
  0.3061225E+00  0.0000000E+00  0.1020408E+00  0.1431641E-04  0.0000000E+00 -0.8572758E-01
  0.3469388E+00  0.0000000E+00  0.1020408E+00  0.1548384E-04  0.0000000E+00 -0.8571903E-01
  0.3877551E+00  0.0000000E+00  0.1020408E+00  0.1639413E-04  0.0000000E+00 -0.8570988E-01
  0.4285714E+00  0.0000000E+00  0.1020408E+00  0.1702977E-04  0.0000000E+00 -0.8570028E-01
  0.4693878E+00  0.0000000E+00  0.1020408E+00  0.1737666E-04  0.0000000E+00 -0.8569040E-01
  0.5102041E+00  0.0000000E+00  0.1020408E+00  0.1742513E-04  0.0000000E+00 -0.8568041E-01
  0.5510204E+00  0.0000000E+00  0.1020408E+00  0.1717053E-04  0.0000000E+00 -0.8567047E-01
  0.5918368E+00  0.0000000E+00  0.1020408E+00  0.1661343E-04  0.0000000E+00 -0.8566076E-01
  0.6326531E+00  0.0000000E+00  0.1020408E+00  0.1575972E-04  0.0000000E+00 -0.8565146E-01
  0.6734694E+00  0.0000000E+00  0.1020408E+00  0.1462057E-04  0.0000000E+00 -0.8564272E-01
  0.7142857E+00  0.0000000E+00  0.1020408E+00  0.1321244E-04  0.0000000E+00 -0.8563471E-01
  0.7551020E+00  0.0000000E+00  0.1020408E+00  0.1155701E-04  0.0000000E+00 -0.8562758E-01
  0.7959183E+00  0.0000000E+00  0.1020408E+00  0.9680952E-05  0.0000000E+00 -0.8562147E-01
  0.8367347E+00  0.0000000E+00  0.1020408E+00  0.7615509E-05  0.0000000E+00 -0.8561649E-01
  0.8775510E+00  0.0000000E+00  0.1020408E+00  0.5395827E-05  0.0000000E+00 -0.8561273E-01
  0.9183673E+00  0.0000000E+00  0.1020408E+00  0.3060113E-05  0.0000000E+00 -0.8561029E-01
  0.9591837E+00  0.0000000E+00  0.1020408E+00  0.6504664E-06  0.0000000E+00 -0.8560920E-01
  0.1000000E+01  0.0000000E+00  0.1020408E+00 -0.1790768E-05  0.0000000E+00 -0.8560952E-01
  0.1040816E+01  0.0000000E+00  0.1020408E+00 -0.4220713E-05  0.0000000E+00 -0.8561123E-01
  0.1081633E+01  0.0000000E+00  0.1020408E+00 -0.6595479E-05  0.0000000E+00 -0.8561432E-01
  0.1122449E+01  0.0000000E+00  0.1020408E+00 -0.8874760E-05  0.0000000E+00 -0.8561875E-01
  0.1163265E+01  0.0000000E+00  0.1020408E+00 -0.1101476E-04  0.0000000E+00 -0.8562445E-01
  0.1204082E+01  0.0000000E+00  0.1020408E+00 -0.1297957E-04  0.0000000E+00 -0.8563133E-01
  0.1244898E+01  0.0000000E+00  0.1020408E+00 -0.1473896E-04  0.0000000E+00 -0.8563927E-01
  0.1285714E+01  0.0000000E+00  0.1020408E+00 -0.1626035E-04  0.0000000E+00 -0.8564816E-01
  0.1326531E+01  0.0000000E+00  0.1020408E+00 -0.1751858E-04  0.0000000E+00 -0.8565784E-01
  0.1367347E+01  0.0000000E+00  0.1020408E+00 -0.1849548E-04  0.0000000E+00 -0.8566817E-01
  0.1408163E+01  0.0000000E+00  0.1020408E+00 -0.1917743E-04  0.0000000E+00 -0.8567897E-01
  0.1448980E+01  0.0000000E+00  0.1020408E+00 -0.1955536E-04  0.0000000E+00 -0.8569007E-01
  0.1489796E+01  0.0000000E+00  0.1020408E+00 -0.1962539E-04  0.0000000E+00 -0.8570130E-01
  0.1530612E+01  0.0000000E+00  0.1020408E+00 -0.1938913E-04  0.0000000E+00 -0.8571248E-01
  0.1571429E+01  0.0000000E+00  0.1020408E+00 -0.1885325E-04  0.0000000E+00 -0.8572343E-01
  0.1612245E+01  0.0000000E+00  0.1020408E+00 -0.1802898E-04  0.0000000E+00 -0.8573400E-01
  0.1653061E+01  0.0000000E+00  0.1020408E+00 -0.1693160E-04  0.0000000E+00 -0.8574401E-01
  0.1693878E+01  0.0000000E+00  0.1020408E+00 -0.1558010E-04  0.0000000E+00 -0.8575332E-01
  0.1734694E+01  0.0000000E+00  0.1020408E+00 -0.1399684E-04  0.0000000E+00 -0.8576178E-01
  0.1775510E+01  0.0000000E+00  0.1020408E+00 -0.1220706E-04  0.0000000E+00 -0.8576929E-01
  0.1816326E+01  0.0000000E+00  0.1020408E+00 -0.1023842E-04  0.0000000E+00 -0.8577571E-01
  0.1857143E+01  0.0000000E+00  0.1020408E+00 -0.8120701E-05  0.0000000E+00 -0.8578096E-01
  0.1897959E+01  0.0000000E+00  0.1020408E+00 -0.5885372E-05  0.0000000E+00 -0.8578497E-01
  0.1938776E+01  0.0000000E+00  0.1020408E+00 -0.3565115E-05  0.0000000E+00 -0.8578767E-01
  0.1989796E+01  0.0000000E+00  0.1020408E+00 -0.1194330E-05  0.0000000E+00 -0.8578904E-01
  0.2040816E-01  0.0000000E+00  0.1428571E+00  0.1438439E-05  0.0000000E+00 -0.8576324E-01
  0.6122449E-01  0.0000000E+00  0.1428571E+00  0.4295556E-05  0.0000000E+00 -0.8576193E-01
  0.1020408E+00  0.0000000E+00  0.1428571E+00  0.7086033E-05  0.0000000E+00 -0.8575932E-01
  0.1428571E+00  0.0000000E+00  0.1428571E+00  0.9764923E-05  0.0000000E+00 -0.8575547E-01
  0.1836735E+00  0.0000000E+00  0.1428571E+00  0.1228640E-04  0.0000000E+00 -0.8575042E-01
  0.2244898E+00  0.0000000E+00  0.1428571E+00  0.1461035E-04  0.0000000E+00 -0.8574426E-01
  0.2653061E+00  0.0000000E+00  0.1428571E+00  0.1670054E-04  0.0000000E+00 -0.8573709E-01
  0.3061225E+00  0.0000000E+00  0.1428571E+00  0.1851865E-04  0.0000000E+00 -0.8572902E-01
  0.3469388E+00  0.0000000E+00  0.1428571E+00  0.2003194E-04  0.0000000E+00 -0.8572018E-01
  0.3877551E+00  0.0000000E+00  0.1428571E+00  0.2121329E-04  0.0000000E+00 -0.8571073E-01
  0.4285714E+00  0.0000000E+00  0.1428571E+00  0.2203975E-04  0.0000000E+00 -0.8570081E-01
  0.4693878E+00  0.0000000E+00  0.1428571E+00  0.2249295E-04  0.0000000E+00 -0.8569059E-01
  0.5102041E+00  0.0000000E+00  0.1428571E+00  0.2256023E-04  0.0000000E+00 -0.8568025E-01
  0.5510204E+00  0.0000000E+00  0.1428571E+00  0.2223533E-04  0.0000000E+00 -0.8566996E-01
  0.5918368E+00  0.0000000E+00  0.1428571E+00  0.2151878E-04  0.0000000E+00 -0.8565990E-01
  0.6326531E+00  0.0000000E+00  0.1428571E+00  0.2041791E-04  0.0000000E+00 -0.8565026E-01
  0.6734694E+00  0.0000000E+00  0.1428571E+00  0.1894698E-04  0.0000000E+00 -0.8564120E-01
  0.7142857E+00  0.0000000E+00  0.1428571E+00  0.1712713E-04  0.0000000E+00 -0.8563290E-01
  0.7551020E+00  0.0000000E+00  0.1428571E+00  0.1498633E-04  0.0000000E+00 -0.8562550E-01
  0.7959183E+00  0.0000000E+00  0.1428571E+00  0.1255908E-04  0.0000000E+00 -0.8561915E-01
  0.8367347E+00  0.0000000E+00  0.1428571E+00  0.9885829E-05  0.0000000E+00 -0.8561396E-01
  0.8775510E+00  0.0000000E+00  0.1428571E+00  0.7012078E-05  0.0000000E+00 -0.8561005E-01
  0.9183673E+00  0.0000000E+00  0.1428571E+00  0.3987662E-05  0.0000000E+00 -0.8560750E-01
  0.9591837E+00  0.0000000E+00  0.1428571E+00  0.8667088E-06  0.0000000E+00 -0.8560636E-01
  0.1000000E+01  0.0000000E+00  0.1428571E+00 -0.2294886E-05  0.0000000E+00 -0.8560666E-01
  0.1040816E+01  0.0000000E+00  0.1428571E+00 -0.5442165E-05  0.0000000E+00 -0.8560841E-01
  0.1081633E+01  0.0000000E+00  0.1428571E+00 -0.8517871E-05  0.0000000E+00 -0.8561159E-01
  0.1122449E+01  0.0000000E+00  0.1428571E+00 -0.1146882E-04  0.0000000E+00 -0.8561615E-01
  0.1163265E+01  0.0000000E+00  0.1428571E+00 -0.1423972E-04  0.0000000E+00 -0.8562203E-01
  0.1204082E+01  0.0000000E+00  0.1428571E+00 -0.1678317E-04  0.0000000E+00 -0.8562913E-01
  0.1244898E+01  0.0000000E+00  0.1428571E+00 -0.1905912E-04  0.0000000E+00 -0.8563733E-01
  0.1285714E+01  0.0000000E+00  0.1428571E+00 -0.2102638E-04  0.0000000E+00 -0.8564651E-01
  0.1326531E+01  0.0000000E+00  0.1428571E+00 -0.2265269E-04  0.0000000E+00 -0.8565651E-01
  0.1367347E+01  0.0000000E+00  0.1428571E+00 -0.2391426E-04  0.0000000E+00 -0.8566717E-01
  0.1408163E+01  0.0000000E+00  0.1428571E+00 -0.2479355E-04  0.0000000E+00 -0.8567831E-01
  0.1448980E+01  0.0000000E+00  0.1428571E+00 -0.2527911E-04  0.0000000E+00 -0.8568977E-01
  0.1489796E+01  0.0000000E+00  0.1428571E+00 -0.2536629E-04  0.0000000E+00 -0.8570135E-01
  0.1530612E+01  0.0000000E+00  0.1428571E+00 -0.2505743E-04  0.0000000E+00 -0.8571288E-01
  0.1571429E+01  0.0000000E+00  0.1428571E+00 -0.2436143E-04  0.0000000E+00 -0.8572418E-01
  0.1612245E+01  0.0000000E+00  0.1428571E+00 -0.2329307E-04  0.0000000E+00 -0.8573506E-01
  0.1653061E+01  0.0000000E+00  0.1428571E+00 -0.2187231E-04  0.0000000E+00 -0.8574538E-01
  0.1693878E+01  0.0000000E+00  0.1428571E+00 -0.2012383E-04  0.0000000E+00 -0.8575497E-01
  0.1734694E+01  0.0000000E+00  0.1428571E+00 -0.1807660E-04  0.0000000E+00 -0.8576369E-01
  0.1775510E+01  0.0000000E+00  0.1428571E+00 -0.1576339E-04  0.0000000E+00 -0.8577141E-01
  0.1816326E+01  0.0000000E+00  0.1428571E+00 -0.1322002E-04  0.0000000E+00 -0.8577803E-01
  0.1857143E+01  0.0000000E+00  0.1428571E+00 -0.1048483E-04  0.0000000E+00 -0.8578343E-01
  0.1897959E+01  0.0000000E+00  0.1428571E+00 -0.7598207E-05  0.0000000E+00 -0.8578756E-01
  0.1938776E+01  0.0000000E+00  0.1428571E+00 -0.4602397E-05  0.0000000E+00 -0.8579034E-01
  0.1989796E+01  0.0000000E+00  0.1428571E+00 -0.1541608E-05  0.0000000E+00 -0.8579174E-01
  0.2040816E-01  0.0000000E+00  0.1836735E+00  0.1736426E-05  0.0000000E+00 -0.8576636E-01
  0.6122449E-01  0.0000000E+00  0.1836735E+00  0.5185033E-05  0.0000000E+00 -0.8576499E-01
  0.1020408E+00  0.0000000E+00  0.1836735E+00  0.8553564E-05  0.0000000E+00 -0.8576229E-01
  0.1428571E+00  0.0000000E+00  0.1836735E+00  0.1178779E-04  0.0000000E+00 -0.8575828E-01
  0.1836735E+00  0.0000000E+00  0.1836735E+00  0.1483332E-04  0.0000000E+00 -0.8575304E-01
  0.2244898E+00  0.0000000E+00  0.1836735E+00  0.1764154E-04  0.0000000E+00 -0.8574664E-01
  0.2653061E+00  0.0000000E+00  0.1836735E+00  0.2016830E-04  0.0000000E+00 -0.8573919E-01
  0.3061225E+00  0.0000000E+00  0.1836735E+00  0.2236783E-04  0.0000000E+00 -0.8573080E-01
  0.3469388E+00  0.0000000E+00  0.1836735E+00  0.2420060E-04  0.0000000E+00 -0.8572162E-01
  0.3877551E+00  0.0000000E+00  0.1836735E+00  0.2563349E-04  0.0000000E+00 -0.8571178E-01
  0.4285714E+00  0.0000000E+00  0.1836735E+00  0.2663843E-04  0.0000000E+00 -0.8570146E-01
  0.4693878E+00  0.0000000E+00  0.1836735E+00  0.2719296E-04  0.0000000E+00 -0.8569082E-01
  0.5102041E+00  0.0000000E+00  0.1836735E+00  0.2728147E-04  0.0000000E+00 -0.8568004E-01
  0.5510204E+00  0.0000000E+00  0.1836735E+00  0.2689607E-04  0.0000000E+00 -0.8566932E-01
  0.5918368E+00  0.0000000E+00  0.1836735E+00  0.2603697E-04  0.0000000E+00 -0.8565883E-01
  0.6326531E+00  0.0000000E+00  0.1836735E+00  0.2471267E-04  0.0000000E+00 -0.8564877E-01
  0.6734694E+00  0.0000000E+00  0.1836735E+00  0.2294005E-04  0.0000000E+00 -0.8563931E-01
  0.7142857E+00  0.0000000E+00  0.1836735E+00  0.2074440E-04  0.0000000E+00 -0.8563064E-01
  0.7551020E+00  0.0000000E+00  0.1836735E+00  0.1815940E-04  0.0000000E+00 -0.8562290E-01
  0.7959183E+00  0.0000000E+00  0.1836735E+00  0.1522675E-04  0.0000000E+00 -0.8561625E-01
  0.8367347E+00  0.0000000E+00  0.1836735E+00  0.1199531E-04  0.0000000E+00 -0.8561082E-01
  0.8775510E+00  0.0000000E+00  0.1836735E+00  0.8520013E-05  0.0000000E+00 -0.8560672E-01
  0.9183673E+00  0.0000000E+00  0.1836735E+00  0.4861922E-05  0.0000000E+00 -0.8560402E-01
  0.9591837E+00  0.0000000E+00  0.1836735E+00  0.1086077E-05  0.0000000E+00 -0.8560280E-01
  0.1000000E+01  0.0000000E+00  0.1836735E+00 -0.2739256E-05  0.0000000E+00 -0.8560309E-01
  0.1040816E+01  0.0000000E+00  0.1836735E+00 -0.6547147E-05  0.0000000E+00 -0.8560489E-01
  0.1081633E+01  0.0000000E+00  0.1836735E+00 -0.1026832E-04  0.0000000E+00 -0.8560818E-01
  0.1122449E+01  0.0000000E+00  0.1836735E+00 -0.1383752E-04  0.0000000E+00 -0.8561291E-01
  0.1163265E+01  0.0000000E+00  0.1836735E+00 -0.1718845E-04  0.0000000E+00 -0.8561902E-01
  0.1204082E+01  0.0000000E+00  0.1836735E+00 -0.2026332E-04  0.0000000E+00 -0.8562639E-01
  0.1244898E+01  0.0000000E+00  0.1836735E+00 -0.2301297E-04  0.0000000E+00 -0.8563492E-01
  0.1285714E+01  0.0000000E+00  0.1836735E+00 -0.2538831E-04  0.0000000E+00 -0.8564445E-01
  0.1326531E+01  0.0000000E+00  0.1836735E+00 -0.2735054E-04  0.0000000E+00 -0.8565484E-01
  0.1367347E+01  0.0000000E+00  0.1836735E+00 -0.2887092E-04  0.0000000E+00 -0.8566592E-01
  0.1408163E+01  0.0000000E+00  0.1836735E+00 -0.2992840E-04  0.0000000E+00 -0.8567749E-01
  0.1448980E+01  0.0000000E+00  0.1836735E+00 -0.3050960E-04  0.0000000E+00 -0.8568939E-01
  0.1489796E+01  0.0000000E+00  0.1836735E+00 -0.3060945E-04  0.0000000E+00 -0.8570141E-01
  0.1530612E+01  0.0000000E+00  0.1836735E+00 -0.3023119E-04  0.0000000E+00 -0.8571338E-01
  0.1571429E+01  0.0000000E+00  0.1836735E+00 -0.2938593E-04  0.0000000E+00 -0.8572509E-01
  0.1612245E+01  0.0000000E+00  0.1836735E+00 -0.2809193E-04  0.0000000E+00 -0.8573638E-01
  0.1653061E+01  0.0000000E+00  0.1836735E+00 -0.2637368E-04  0.0000000E+00 -0.8574708E-01
  0.1693878E+01  0.0000000E+00  0.1836735E+00 -0.2426121E-04  0.0000000E+00 -0.8575701E-01
  0.1734694E+01  0.0000000E+00  0.1836735E+00 -0.2178958E-04  0.0000000E+00 -0.8576605E-01
  0.1775510E+01  0.0000000E+00  0.1836735E+00 -0.1899842E-04  0.0000000E+00 -0.8577404E-01
  0.1816326E+01  0.0000000E+00  0.1836735E+00 -0.1593111E-04  0.0000000E+00 -0.8578089E-01
  0.1857143E+01  0.0000000E+00  0.1836735E+00 -0.1263380E-04  0.0000000E+00 -0.8578649E-01
  0.1897959E+01  0.0000000E+00  0.1836735E+00 -0.9154776E-05  0.0000000E+00 -0.8579075E-01
  0.1938776E+01  0.0000000E+00  0.1836735E+00 -0.5544938E-05  0.0000000E+00 -0.8579363E-01
  0.1989796E+01  0.0000000E+00  0.1836735E+00 -0.1857086E-05  0.0000000E+00 -0.8579508E-01
  0.2040816E-01  0.0000000E+00  0.2244898E+00  0.2016992E-05  0.0000000E+00 -0.8577003E-01
  0.6122449E-01  0.0000000E+00  0.2244898E+00  0.6022441E-05  0.0000000E+00 -0.8576861E-01
  0.1020408E+00  0.0000000E+00  0.2244898E+00  0.9935381E-05  0.0000000E+00 -0.8576578E-01
  0.1428571E+00  0.0000000E+00  0.2244898E+00  0.1369313E-04  0.0000000E+00 -0.8576160E-01
  0.1836735E+00  0.0000000E+00  0.2244898E+00  0.1723331E-04  0.0000000E+00 -0.8575613E-01
  0.2244898E+00  0.0000000E+00  0.2244898E+00  0.2049941E-04  0.0000000E+00 -0.8574945E-01
  0.2653061E+00  0.0000000E+00  0.2244898E+00  0.2343986E-04  0.0000000E+00 -0.8574167E-01
  0.3061225E+00  0.0000000E+00  0.2244898E+00  0.2600188E-04  0.0000000E+00 -0.8573291E-01
  0.3469388E+00  0.0000000E+00  0.2244898E+00  0.2813946E-04  0.0000000E+00 -0.8572331E-01
  0.3877551E+00  0.0000000E+00  0.2244898E+00  0.2981369E-04  0.0000000E+00 -0.8571302E-01
  0.4285714E+00  0.0000000E+00  0.2244898E+00  0.3099150E-04  0.0000000E+00 -0.8570222E-01
  0.4693878E+00  0.0000000E+00  0.2244898E+00  0.3164639E-04  0.0000000E+00 -0.8569108E-01
  0.5102041E+00  0.0000000E+00  0.2244898E+00  0.3175971E-04  0.0000000E+00 -0.8567980E-01
  0.5510204E+00  0.0000000E+00  0.2244898E+00  0.3132177E-04  0.0000000E+00 -0.8566856E-01
  0.5918368E+00  0.0000000E+00  0.2244898E+00  0.3033223E-04  0.0000000E+00 -0.8565756E-01
  0.6326531E+00  0.0000000E+00  0.2244898E+00  0.2880044E-04  0.0000000E+00 -0.8564700E-01
  0.6734694E+00  0.0000000E+00  0.2244898E+00  0.2674555E-04  0.0000000E+00 -0.8563707E-01
  0.7142857E+00  0.0000000E+00  0.2244898E+00  0.2419662E-04  0.0000000E+00 -0.8562796E-01
  0.7551020E+00  0.0000000E+00  0.2244898E+00  0.2119261E-04  0.0000000E+00 -0.8561982E-01
  0.7959183E+00  0.0000000E+00  0.2244898E+00  0.1778199E-04  0.0000000E+00 -0.8561282E-01
  0.8367347E+00  0.0000000E+00  0.2244898E+00  0.1402167E-04  0.0000000E+00 -0.8560709E-01
  0.8775510E+00  0.0000000E+00  0.2244898E+00  0.9975535E-05  0.0000000E+00 -0.8560276E-01
  0.9183673E+00  0.0000000E+00  0.2244898E+00  0.5715349E-05  0.0000000E+00 -0.8559990E-01
  0.9591837E+00  0.0000000E+00  0.2244898E+00  0.1317000E-05  0.0000000E+00 -0.8559859E-01
  0.1000000E+01  0.0000000E+00  0.2244898E+00 -0.3139662E-05  0.0000000E+00 -0.8559886E-01
  0.1040816E+01  0.0000000E+00  0.2244898E+00 -0.7575868E-05  0.0000000E+00 -0.8560071E-01
  0.1081633E+01  0.0000000E+00  0.2244898E+00 -0.1191064E-04  0.0000000E+00 -0.8560414E-01
  0.1122449E+01  0.0000000E+00  0.2244898E+00 -0.1606721E-04  0.0000000E+00 -0.8560907E-01
  0.1163265E+01  0.0000000E+00  0.2244898E+00 -0.1996858E-04  0.0000000E+00 -0.8561544E-01
  0.1204082E+01  0.0000000E+00  0.2244898E+00 -0.2354700E-04  0.0000000E+00 -0.8562314E-01
  0.1244898E+01  0.0000000E+00  0.2244898E+00 -0.2674464E-04  0.0000000E+00 -0.8563205E-01
  0.1285714E+01  0.0000000E+00  0.2244898E+00 -0.2950486E-04  0.0000000E+00 -0.8564201E-01
  0.1326531E+01  0.0000000E+00  0.2244898E+00 -0.3178280E-04  0.0000000E+00 -0.8565287E-01
  0.1367347E+01  0.0000000E+00  0.2244898E+00 -0.3354517E-04  0.0000000E+00 -0.8566443E-01
  0.1408163E+01  0.0000000E+00  0.2244898E+00 -0.3476780E-04  0.0000000E+00 -0.8567652E-01
  0.1448980E+01  0.0000000E+00  0.2244898E+00 -0.3543574E-04  0.0000000E+00 -0.8568894E-01
  0.1489796E+01  0.0000000E+00  0.2244898E+00 -0.3554380E-04  0.0000000E+00 -0.8570148E-01
  0.1530612E+01  0.0000000E+00  0.2244898E+00 -0.3509642E-04  0.0000000E+00 -0.8571396E-01
  0.1571429E+01  0.0000000E+00  0.2244898E+00 -0.3410705E-04  0.0000000E+00 -0.8572617E-01
  0.1612245E+01  0.0000000E+00  0.2244898E+00 -0.3259742E-04  0.0000000E+00 -0.8573794E-01
  0.1653061E+01  0.0000000E+00  0.2244898E+00 -0.3059657E-04  0.0000000E+00 -0.8574907E-01
  0.1693878E+01  0.0000000E+00  0.2244898E+00 -0.2813979E-04  0.0000000E+00 -0.8575942E-01
  0.1734694E+01  0.0000000E+00  0.2244898E+00 -0.2526802E-04  0.0000000E+00 -0.8576882E-01
  0.1775510E+01  0.0000000E+00  0.2244898E+00 -0.2202728E-04  0.0000000E+00 -0.8577714E-01
  0.1816326E+01  0.0000000E+00  0.2244898E+00 -0.1846803E-04  0.0000000E+00 -0.8578426E-01
  0.1857143E+01  0.0000000E+00  0.2244898E+00 -0.1464382E-04  0.0000000E+00 -0.8579008E-01
  0.1897959E+01  0.0000000E+00  0.2244898E+00 -0.1061028E-04  0.0000000E+00 -0.8579451E-01
  0.1938776E+01  0.0000000E+00  0.2244898E+00 -0.6426170E-05  0.0000000E+00 -0.8579750E-01
  0.1989796E+01  0.0000000E+00  0.2244898E+00 -0.2152070E-05  0.0000000E+00 -0.8579901E-01
  0.2040816E-01  0.0000000E+00  0.2653061E+00  0.2287267E-05  0.0000000E+00 -0.8577422E-01
  0.6122449E-01  0.0000000E+00  0.2653061E+00  0.6829303E-05  0.0000000E+00 -0.8577274E-01
  0.1020408E+00  0.0000000E+00  0.2653061E+00  0.1126710E-04  0.0000000E+00 -0.8576978E-01
  0.1428571E+00  0.0000000E+00  0.2653061E+00  0.1553012E-04  0.0000000E+00 -0.8576540E-01
  0.1836735E+00  0.0000000E+00  0.2653061E+00  0.1954840E-04  0.0000000E+00 -0.8575967E-01
  0.2244898E+00  0.0000000E+00  0.2653061E+00  0.2325798E-04  0.0000000E+00 -0.8575267E-01
  0.2653061E+00  0.0000000E+00  0.2653061E+00  0.2660017E-04  0.0000000E+00 -0.8574451E-01
  0.3061225E+00  0.0000000E+00  0.2653061E+00  0.2951539E-04  0.0000000E+00 -0.8573532E-01
  0.3469388E+00  0.0000000E+00  0.2653061E+00  0.3195131E-04  0.0000000E+00 -0.8572525E-01
  0.3877551E+00  0.0000000E+00  0.2653061E+00  0.3386331E-04  0.0000000E+00 -0.8571445E-01
  0.4285714E+00  0.0000000E+00  0.2653061E+00  0.3521330E-04  0.0000000E+00 -0.8570310E-01
  0.4693878E+00  0.0000000E+00  0.2653061E+00  0.3597059E-04  0.0000000E+00 -0.8569139E-01
  0.5102041E+00  0.0000000E+00  0.2653061E+00  0.3611338E-04  0.0000000E+00 -0.8567952E-01
  0.5510204E+00  0.0000000E+00  0.2653061E+00  0.3562987E-04  0.0000000E+00 -0.8566769E-01
  0.5918368E+00  0.0000000E+00  0.2653061E+00  0.3451895E-04  0.0000000E+00 -0.8565611E-01
  0.6326531E+00  0.0000000E+00  0.2653061E+00  0.3279046E-04  0.0000000E+00 -0.8564498E-01
  0.6734694E+00  0.0000000E+00  0.2653061E+00  0.3046552E-04  0.0000000E+00 -0.8563450E-01
  0.7142857E+00  0.0000000E+00  0.2653061E+00  0.2757665E-04  0.0000000E+00 -0.8562488E-01
  0.7551020E+00  0.0000000E+00  0.2653061E+00  0.2416778E-04  0.0000000E+00 -0.8561628E-01
  0.7959183E+00  0.0000000E+00  0.2653061E+00  0.2029392E-04  0.0000000E+00 -0.8560887E-01
  0.8367347E+00  0.0000000E+00  0.2653061E+00  0.1601979E-04  0.0000000E+00 -0.8560280E-01
  0.8775510E+00  0.0000000E+00  0.2653061E+00  0.1141819E-04  0.0000000E+00 -0.8559820E-01
  0.9183673E+00  0.0000000E+00  0.2653061E+00  0.6571212E-05  0.0000000E+00 -0.8559516E-01
  0.9591837E+00  0.0000000E+00  0.2653061E+00  0.1565730E-05  0.0000000E+00 -0.8559374E-01
  0.1000000E+01  0.0000000E+00  0.2653061E+00 -0.3506945E-05  0.0000000E+00 -0.8559399E-01
  0.1040816E+01  0.0000000E+00  0.2653061E+00 -0.8556248E-05  0.0000000E+00 -0.8559591E-01
  0.1081633E+01  0.0000000E+00  0.2653061E+00 -0.1348946E-04  0.0000000E+00 -0.8559948E-01
  0.1122449E+01  0.0000000E+00  0.2653061E+00 -0.1821842E-04  0.0000000E+00 -0.8560465E-01
  0.1163265E+01  0.0000000E+00  0.2653061E+00 -0.2265546E-04  0.0000000E+00 -0.8561133E-01
  0.1204082E+01  0.0000000E+00  0.2653061E+00 -0.2672304E-04  0.0000000E+00 -0.8561941E-01
  0.1244898E+01  0.0000000E+00  0.2653061E+00 -0.3035480E-04  0.0000000E+00 -0.8562876E-01
  0.1285714E+01  0.0000000E+00  0.2653061E+00 -0.3348677E-04  0.0000000E+00 -0.8563921E-01
  0.1326531E+01  0.0000000E+00  0.2653061E+00 -0.3606831E-04  0.0000000E+00 -0.8565060E-01