title = "dataset feddes"
variables = "x", "y", "z", "h_w", "p_w", "s_w", "theta_w", "transp", "evap"
zone t = "Flow variables, solution time =  2.800E+01 days        " i =   50, j =   50, k =    1,  f=point
  0.0000000E+00  0.0000000E+00  0.0000000E+00  0.0000000E+00  0.0000000E+00  0.1000000E+01  0.4280000E+00  0.0000000E+00  0.0000000E+00
  0.4081633E-01  0.0000000E+00  0.0000000E+00  0.0000000E+00  0.0000000E+00  0.1000000E+01  0.4280000E+00  0.0000000E+00  0.0000000E+00
  0.8163265E-01  0.0000000E+00  0.0000000E+00  0.0000000E+00  0.0000000E+00  0.1000000E+01  0.4280000E+00  0.0000000E+00  0.0000000E+00
  0.1224490E+00  0.0000000E+00  0.0000000E+00  0.0000000E+00  0.0000000E+00  0.1000000E+01  0.4280000E+00  0.0000000E+00  0.0000000E+00
  0.1632653E+00  0.0000000E+00  0.0000000E+00  0.0000000E+00  0.0000000E+00  0.1000000E+01  0.4280000E+00  0.0000000E+00  0.0000000E+00
  0.2040816E+00  0.0000000E+00  0.0000000E+00  0.0000000E+00  0.0000000E+00  0.1000000E+01  0.4280000E+00  0.0000000E+00  0.0000000E+00
  0.2448980E+00  0.0000000E+00  0.0000000E+00  0.0000000E+00  0.0000000E+00  0.1000000E+01  0.4280000E+00  0.0000000E+00  0.0000000E+00
  0.2857143E+00  0.0000000E+00  0.0000000E+00  0.0000000E+00  0.0000000E+00  0.1000000E+01  0.4280000E+00  0.0000000E+00  0.0000000E+00
  0.3265306E+00  0.0000000E+00  0.0000000E+00  0.0000000E+00  0.0000000E+00  0.1000000E+01  0.4280000E+00  0.0000000E+00  0.0000000E+00
  0.3673469E+00  0.0000000E+00  0.0000000E+00  0.0000000E+00  0.0000000E+00  0.1000000E+01  0.4280000E+00  0.0000000E+00  0.0000000E+00
  0.4081633E+00  0.0000000E+00  0.0000000E+00  0.0000000E+00  0.0000000E+00  0.1000000E+01  0.4280000E+00  0.0000000E+00  0.0000000E+00
  0.4489796E+00  0.0000000E+00  0.0000000E+00  0.0000000E+00  0.0000000E+00  0.1000000E+01  0.4280000E+00  0.0000000E+00  0.0000000E+00
  0.4897959E+00  0.0000000E+00  0.0000000E+00  0.0000000E+00  0.0000000E+00  0.1000000E+01  0.4280000E+00  0.0000000E+00  0.0000000E+00
  0.5306122E+00  0.0000000E+00  0.0000000E+00  0.0000000E+00  0.0000000E+00  0.1000000E+01  0.4280000E+00  0.0000000E+00  0.0000000E+00
  0.5714286E+00  0.0000000E+00  0.0000000E+00  0.0000000E+00  0.0000000E+00  0.1000000E+01  0.4280000E+00  0.0000000E+00  0.0000000E+00
  0.6122449E+00  0.0000000E+00  0.0000000E+00  0.0000000E+00  0.0000000E+00  0.1000000E+01  0.4280000E+00  0.0000000E+00  0.0000000E+00
  0.6530612E+00  0.0000000E+00  0.0000000E+00  0.0000000E+00  0.0000000E+00  0.1000000E+01  0.4280000E+00  0.0000000E+00  0.0000000E+00
  0.6938776E+00  0.0000000E+00  0.0000000E+00  0.0000000E+00  0.0000000E+00  0.1000000E+01  0.4280000E+00  0.0000000E+00  0.0000000E+00
  0.7346939E+00  0.0000000E+00  0.0000000E+00  0.0000000E+00  0.0000000E+00  0.1000000E+01  0.4280000E+00  0.0000000E+00  0.0000000E+00
  0.7755102E+00  0.0000000E+00  0.0000000E+00  0.0000000E+00  0.0000000E+00  0.1000000E+01  0.4280000E+00  0.0000000E+00  0.0000000E+00
  0.8163265E+00  0.0000000E+00  0.0000000E+00  0.0000000E+00  0.0000000E+00  0.1000000E+01  0.4280000E+00  0.0000000E+00  0.0000000E+00
  0.8571429E+00  0.0000000E+00  0.0000000E+00  0.0000000E+00  0.0000000E+00  0.1000000E+01  0.4280000E+00  0.0000000E+00  0.0000000E+00
  0.8979592E+00  0.0000000E+00  0.0000000E+00  0.0000000E+00  0.0000000E+00  0.1000000E+01  0.4280000E+00  0.0000000E+00  0.0000000E+00
  0.9387755E+00  0.0000000E+00  0.0000000E+00  0.0000000E+00  0.0000000E+00  0.1000000E+01  0.4280000E+00  0.0000000E+00  0.0000000E+00
  0.9795918E+00  0.0000000E+00  0.0000000E+00  0.0000000E+00  0.0000000E+00  0.1000000E+01  0.4280000E+00  0.0000000E+00  0.0000000E+00
  0.1020408E+01  0.0000000E+00  0.0000000E+00  0.0000000E+00  0.0000000E+00  0.1000000E+01  0.4280000E+00  0.0000000E+00  0.0000000E+00
  0.1061224E+01  0.0000000E+00  0.0000000E+00  0.0000000E+00  0.0000000E+00  0.1000000E+01  0.4280000E+00  0.0000000E+00  0.0000000E+00
  0.1102041E+01  0.0000000E+00  0.0000000E+00  0.0000000E+00  0.0000000E+00  0.1000000E+01  0.4280000E+00  0.0000000E+00  0.0000000E+00
  0.1142857E+01  0.0000000E+00  0.0000000E+00  0.0000000E+00  0.0000000E+00  0.1000000E+01  0.4280000E+00  0.0000000E+00  0.0000000E+00
  0.1183673E+01  0.0000000E+00  0.0000000E+00  0.0000000E+00  0.0000000E+00  0.1000000E+01  0.4280000E+00  0.0000000E+00  0.0000000E+00
  0.1224490E+01  0.0000000E+00  0.0000000E+00  0.0000000E+00  0.0000000E+00  0.1000000E+01  0.4280000E+00  0.0000000E+00  0.0000000E+00
  0.1265306E+01  0.0000000E+00  0.0000000E+00  0.0000000E+00  0.0000000E+00  0.1000000E+01  0.4280000E+00  0.0000000E+00  0.0000000E+00
  0.1306122E+01  0.0000000E+00  0.0000000E+00  0.0000000E+00  0.0000000E+00  0.1000000E+01  0.4280000E+00  0.0000000E+00  0.0000000E+00
  0.1346939E+01  0.0000000E+00  0.0000000E+00  0.0000000E+00  0.0000000E+00  0.1000000E+01  0.4280000E+00  0.0000000E+00  0.0000000E+00
  0.1387755E+01  0.0000000E+00  0.0000000E+00  0.0000000E+00  0.0000000E+00  0.1000000E+01  0.4280000E+00  0.0000000E+00  0.0000000E+00
  0.1428571E+01  0.0000000E+00  0.0000000E+00  0.0000000E+00  0.0000000E+00  0.1000000E+01  0.4280000E+00  0.0000000E+00  0.0000000E+00
  0.1469388E+01  0.0000000E+00  0.0000000E+00  0.0000000E+00  0.0000000E+00  0.1000000E+01  0.4280000E+00  0.0000000E+00  0.0000000E+00
  0.1510204E+01  0.0000000E+00  0.0000000E+00  0.0000000E+00  0.0000000E+00  0.1000000E+01  0.4280000E+00  0.0000000E+00  0.0000000E+00
  0.1551020E+01  0.0000000E+00  0.0000000E+00  0.0000000E+00  0.0000000E+00  0.1000000E+01  0.4280000E+00  0.0000000E+00  0.0000000E+00
  0.1591837E+01  0.0000000E+00  0.0000000E+00  0.0000000E+00  0.0000000E+00  0.1000000E+01  0.4280000E+00  0.0000000E+00  0.0000000E+00
  0.1632653E+01  0.0000000E+00  0.0000000E+00  0.0000000E+00  0.0000000E+00  0.1000000E+01  0.4280000E+00  0.0000000E+00  0.0000000E+00
  0.1673469E+01  0.0000000E+00  0.0000000E+00  0.0000000E+00  0.0000000E+00  0.1000000E+01  0.4280000E+00  0.0000000E+00  0.0000000E+00
  0.1714286E+01  0.0000000E+00  0.0000000E+00  0.0000000E+00  0.0000000E+00  0.1000000E+01  0.4280000E+00  0.0000000E+00  0.0000000E+00
  0.1755102E+01  0.0000000E+00  0.0000000E+00  0.0000000E+00  0.0000000E+00  0.1000000E+01  0.4280000E+00  0.0000000E+00  0.0000000E+00
  0.1795918E+01  0.0000000E+00  0.0000000E+00  0.0000000E+00  0.0000000E+00  0.1000000E+01  0.4280000E+00  0.0000000E+00  0.0000000E+00
  0.1836735E+01  0.0000000E+00  0.0000000E+00  0.0000000E+00  0.0000000E+00  0.1000000E+01  0.4280000E+00  0.0000000E+00  0.0000000E+00
  0.1877551E+01  0.0000000E+00  0.0000000E+00  0.0000000E+00  0.0000000E+00  0.1000000E+01  0.4280000E+00  0.0000000E+00  0.0000000E+00
  0.1918367E+01  0.0000000E+00  0.0000000E+00  0.0000000E+00  0.0000000E+00  0.1000000E+01  0.4280000E+00  0.0000000E+00  0.0000000E+00
  0.1959184E+01  0.0000000E+00  0.0000000E+00  0.0000000E+00  0.0000000E+00  0.1000000E+01  0.4280000E+00  0.0000000E+00  0.0000000E+00
  0.2000000E+01  0.0000000E+00  0.0000000E+00  0.0000000E+00  0.0000000E+00  0.1000000E+01  0.4280000E+00  0.0000000E+00  0.0000000E+00
  0.0000000E+00  0.0000000E+00  0.4081633E-01  0.1324226E-01 -0.2757406E-01  0.9976980E+00  0.4270147E+00  0.0000000E+00  0.0000000E+00
  0.4081633E-01  0.0000000E+00  0.4081633E-01  0.1324218E-01 -0.2757414E-01  0.9976979E+00  0.4270147E+00  0.0000000E+00  0.0000000E+00
  0.8163265E-01  0.0000000E+00  0.4081633E-01  0.1324195E-01 -0.2757438E-01  0.9976979E+00  0.4270147E+00  0.0000000E+00  0.0000000E+00
  0.1224490E+00  0.0000000E+00  0.4081633E-01  0.1324156E-01 -0.2757477E-01  0.9976979E+00  0.4270147E+00  0.0000000E+00  0.0000000E+00
  0.1632653E+00  0.0000000E+00  0.4081633E-01  0.1324102E-01 -0.2757531E-01  0.9976978E+00  0.4270147E+00  0.0000000E+00  0.0000000E+00
  0.2040816E+00  0.0000000E+00  0.4081633E-01  0.1324034E-01 -0.2757599E-01  0.9976977E+00  0.4270146E+00  0.0000000E+00  0.0000000E+00
  0.2448980E+00  0.0000000E+00  0.4081633E-01  0.1323953E-01 -0.2757680E-01  0.9976976E+00  0.4270146E+00  0.0000000E+00  0.0000000E+00
  0.2857143E+00  0.0000000E+00  0.4081633E-01  0.1323861E-01 -0.2757772E-01  0.9976975E+00  0.4270145E+00  0.0000000E+00  0.0000000E+00
  0.3265306E+00  0.0000000E+00  0.4081633E-01  0.1323759E-01 -0.2757874E-01  0.9976974E+00  0.4270145E+00  0.0000000E+00  0.0000000E+00
  0.3673469E+00  0.0000000E+00  0.4081633E-01  0.1323648E-01 -0.2757985E-01  0.9976973E+00  0.4270144E+00  0.0000000E+00  0.0000000E+00
  0.4081633E+00  0.0000000E+00  0.4081633E-01  0.1323531E-01 -0.2758102E-01  0.9976972E+00  0.4270144E+00  0.0000000E+00  0.0000000E+00
  0.4489796E+00  0.0000000E+00  0.4081633E-01  0.1323409E-01 -0.2758223E-01  0.9976970E+00  0.4270143E+00  0.0000000E+00  0.0000000E+00
  0.4897959E+00  0.0000000E+00  0.4081633E-01  0.1323285E-01 -0.2758347E-01  0.9976969E+00  0.4270143E+00  0.0000000E+00  0.0000000E+00
  0.5306122E+00  0.0000000E+00  0.4081633E-01  0.1323161E-01 -0.2758472E-01  0.9976967E+00  0.4270142E+00  0.0000000E+00  0.0000000E+00
  0.5714286E+00  0.0000000E+00  0.4081633E-01  0.1323038E-01 -0.2758594E-01  0.9976966E+00  0.4270141E+00  0.0000000E+00  0.0000000E+00
  0.6122449E+00  0.0000000E+00  0.4081633E-01  0.1322920E-01 -0.2758713E-01  0.9976965E+00  0.4270141E+00  0.0000000E+00  0.0000000E+00
  0.6530612E+00  0.0000000E+00  0.4081633E-01  0.1322807E-01 -0.2758825E-01  0.9976963E+00  0.4270140E+00  0.0000000E+00  0.0000000E+00
  0.6938776E+00  0.0000000E+00  0.4081633E-01  0.1322703E-01 -0.2758930E-01  0.9976962E+00  0.4270140E+00  0.0000000E+00  0.0000000E+00
  0.7346939E+00  0.0000000E+00  0.4081633E-01  0.1322609E-01 -0.2759024E-01  0.9976961E+00  0.4270139E+00  0.0000000E+00  0.0000000E+00
  0.7755102E+00  0.0000000E+00  0.4081633E-01  0.1322526E-01 -0.2759107E-01  0.9976960E+00  0.4270139E+00  0.0000000E+00  0.0000000E+00
  0.8163265E+00  0.0000000E+00  0.4081633E-01  0.1322457E-01 -0.2759176E-01  0.9976959E+00  0.4270139E+00  0.0000000E+00  0.0000000E+00
  0.8571429E+00  0.0000000E+00  0.4081633E-01  0.1322402E-01 -0.2759230E-01  0.9976959E+00  0.4270138E+00  0.0000000E+00  0.0000000E+00
  0.8979592E+00  0.0000000E+00  0.4081633E-01  0.1322364E-01 -0.2759269E-01  0.9976958E+00  0.4270138E+00  0.0000000E+00  0.0000000E+00
  0.9387755E+00  0.0000000E+00  0.4081633E-01  0.1322342E-01 -0.2759291E-01  0.9976958E+00  0.4270138E+00  0.0000000E+00  0.0000000E+00
  0.9795918E+00  0.0000000E+00  0.4081633E-01  0.1322337E-01 -0.2759296E-01  0.9976958E+00  0.4270138E+00  0.0000000E+00  0.0000000E+00
  0.1020408E+01  0.0000000E+00  0.4081633E-01  0.1322350E-01 -0.2759283E-01  0.9976958E+00  0.4270138E+00  0.0000000E+00  0.0000000E+00
  0.1061224E+01  0.0000000E+00  0.4081633E-01  0.1322379E-01 -0.2759253E-01  0.9976958E+00  0.4270138E+00  0.0000000E+00  0.0000000E+00
  0.1102041E+01  0.0000000E+00  0.4081633E-01  0.1322426E-01 -0.2759206E-01  0.9976959E+00  0.4270138E+00  0.0000000E+00  0.0000000E+00
  0.1142857E+01  0.0000000E+00  0.4081633E-01  0.1322489E-01 -0.2759143E-01  0.9976960E+00  0.4270139E+00  0.0000000E+00  0.0000000E+00
  0.1183673E+01  0.0000000E+00  0.4081633E-01  0.1322568E-01 -0.2759065E-01  0.9976961E+00  0.4270139E+00  0.0000000E+00  0.0000000E+00
  0.1224490E+01  0.0000000E+00  0.4081633E-01  0.1322660E-01 -0.2758973E-01  0.9976962E+00  0.4270140E+00  0.0000000E+00  0.0000000E+00
  0.1265306E+01  0.0000000E+00  0.4081633E-01  0.1322765E-01 -0.2758868E-01  0.9976963E+00  0.4270140E+00  0.0000000E+00  0.0000000E+00
  0.1306122E+01  0.0000000E+00  0.4081633E-01  0.1322881E-01 -0.2758752E-01  0.9976964E+00  0.4270141E+00  0.0000000E+00  0.0000000E+00
  0.1346939E+01  0.0000000E+00  0.4081633E-01  0.1323006E-01 -0.2758627E-01  0.9976966E+00  0.4270141E+00  0.0000000E+00  0.0000000E+00
  0.1387755E+01  0.0000000E+00  0.4081633E-01  0.1323138E-01 -0.2758495E-01  0.9976967E+00  0.4270142E+00  0.0000000E+00  0.0000000E+00
  0.1428571E+01  0.0000000E+00  0.4081633E-01  0.1323274E-01 -0.2758358E-01  0.9976969E+00  0.4270143E+00  0.0000000E+00  0.0000000E+00
  0.1469388E+01  0.0000000E+00  0.4081633E-01  0.1323414E-01 -0.2758219E-01  0.9976970E+00  0.4270143E+00  0.0000000E+00  0.0000000E+00
  0.1510204E+01  0.0000000E+00  0.4081633E-01  0.1323554E-01 -0.2758079E-01  0.9976972E+00  0.4270144E+00  0.0000000E+00  0.0000000E+00
  0.1551020E+01  0.0000000E+00  0.4081633E-01  0.1323692E-01 -0.2757940E-01  0.9976973E+00  0.4270145E+00  0.0000000E+00  0.0000000E+00
  0.1591837E+01  0.0000000E+00  0.4081633E-01  0.1323827E-01 -0.2757806E-01  0.9976975E+00  0.4270145E+00  0.0000000E+00  0.0000000E+00
  0.1632653E+01  0.0000000E+00  0.4081633E-01  0.1323956E-01 -0.2757677E-01  0.9976976E+00  0.4270146E+00  0.0000000E+00  0.0000000E+00
  0.1673469E+01  0.0000000E+00  0.4081633E-01  0.1324077E-01 -0.2757556E-01  0.9976978E+00  0.4270147E+00  0.0000000E+00  0.0000000E+00
  0.1714286E+01  0.0000000E+00  0.4081633E-01  0.1324188E-01 -0.2757444E-01  0.9976979E+00  0.4270147E+00  0.0000000E+00  0.0000000E+00
  0.1755102E+01  0.0000000E+00  0.4081633E-01  0.1324288E-01 -0.2757344E-01  0.9976980E+00  0.4270148E+00  0.0000000E+00  0.0000000E+00
  0.1795918E+01  0.0000000E+00  0.4081633E-01  0.1324376E-01 -0.2757257E-01  0.9976981E+00  0.4270148E+00  0.0000000E+00  0.0000000E+00
  0.1836735E+01  0.0000000E+00  0.4081633E-01  0.1324449E-01 -0.2757184E-01  0.9976982E+00  0.4270148E+00  0.0000000E+00  0.0000000E+00
  0.1877551E+01  0.0000000E+00  0.4081633E-01  0.1324507E-01 -0.2757126E-01  0.9976983E+00  0.4270149E+00  0.0000000E+00  0.0000000E+00
  0.1918367E+01  0.0000000E+00  0.4081633E-01  0.1324549E-01 -0.2757084E-01  0.9976983E+00  0.4270149E+00  0.0000000E+00  0.0000000E+00
  0.1959184E+01  0.0000000E+00  0.4081633E-01  0.1324574E-01 -0.2757058E-01  0.9976984E+00  0.4270149E+00  0.0000000E+00  0.0000000E+00
  0.2000000E+01  0.0000000E+00  0.4081633E-01  0.1324583E-01 -0.2757050E-01  0.9976984E+00  0.4270149E+00  0.0000000E+00  0.0000000E+00
  0.0000000E+00  0.0000000E+00  0.8163265E-01  0.2964647E-01 -0.5198618E-01  0.9945212E+00  0.4256551E+00  0.0000000E+00  0.0000000E+00
  0.4081633E-01  0.0000000E+00  0.8163265E-01  0.2964630E-01 -0.5198635E-01  0.9945212E+00  0.4256551E+00  0.0000000E+00  0.0000000E+00
  0.8163265E-01  0.0000000E+00  0.8163265E-01  0.2964579E-01 -0.5198686E-01  0.9945211E+00  0.4256550E+00  0.0000000E+00  0.0000000E+00
  0.1224490E+00  0.0000000E+00  0.8163265E-01  0.2964495E-01 -0.5198771E-01  0.9945210E+00  0.4256550E+00  0.0000000E+00  0.0000000E+00
  0.1632653E+00  0.0000000E+00  0.8163265E-01  0.2964378E-01 -0.5198887E-01  0.9945208E+00  0.4256549E+00  0.0000000E+00  0.0000000E+00
  0.2040816E+00  0.0000000E+00  0.8163265E-01  0.2964232E-01 -0.5199033E-01  0.9945206E+00  0.4256548E+00  0.0000000E+00  0.0000000E+00
  0.2448980E+00  0.0000000E+00  0.8163265E-01  0.2964058E-01 -0.5199207E-01  0.9945204E+00  0.4256547E+00  0.0000000E+00  0.0000000E+00
  0.2857143E+00  0.0000000E+00  0.8163265E-01  0.2963859E-01 -0.5199406E-01  0.9945201E+00  0.4256546E+00  0.0000000E+00  0.0000000E+00
  0.3265306E+00  0.0000000E+00  0.8163265E-01  0.2963638E-01 -0.5199627E-01  0.9945198E+00  0.4256545E+00  0.0000000E+00  0.0000000E+00
  0.3673469E+00  0.0000000E+00  0.8163265E-01  0.2963400E-01 -0.5199866E-01  0.9945194E+00  0.4256543E+00  0.0000000E+00  0.0000000E+00
  0.4081633E+00  0.0000000E+00  0.8163265E-01  0.2963147E-01 -0.5200118E-01  0.9945191E+00  0.4256542E+00  0.0000000E+00  0.0000000E+00
  0.4489796E+00  0.0000000E+00  0.8163265E-01  0.2962885E-01 -0.5200381E-01  0.9945187E+00  0.4256540E+00  0.0000000E+00  0.0000000E+00
  0.4897959E+00  0.0000000E+00  0.8163265E-01  0.2962617E-01 -0.5200648E-01  0.9945183E+00  0.4256538E+00  0.0000000E+00  0.0000000E+00
  0.5306122E+00  0.0000000E+00  0.8163265E-01  0.2962348E-01 -0.5200917E-01  0.9945179E+00  0.4256537E+00  0.0000000E+00  0.0000000E+00
  0.5714286E+00  0.0000000E+00  0.8163265E-01  0.2962084E-01 -0.5201181E-01  0.9945175E+00  0.4256535E+00  0.0000000E+00  0.0000000E+00
  0.6122449E+00  0.0000000E+00  0.8163265E-01  0.2961828E-01 -0.5201437E-01  0.9945172E+00  0.4256533E+00  0.0000000E+00  0.0000000E+00
  0.6530612E+00  0.0000000E+00  0.8163265E-01  0.2961585E-01 -0.5201680E-01  0.9945168E+00  0.4256532E+00  0.0000000E+00  0.0000000E+00
  0.6938776E+00  0.0000000E+00  0.8163265E-01  0.2961359E-01 -0.5201906E-01  0.9945165E+00  0.4256531E+00  0.0000000E+00  0.0000000E+00
  0.7346939E+00  0.0000000E+00  0.8163265E-01  0.2961156E-01 -0.5202110E-01  0.9945162E+00  0.4256529E+00  0.0000000E+00  0.0000000E+00
  0.7755102E+00  0.0000000E+00  0.8163265E-01  0.2960977E-01 -0.5202288E-01  0.9945159E+00  0.4256528E+00  0.0000000E+00  0.0000000E+00
  0.8163265E+00  0.0000000E+00  0.8163265E-01  0.2960828E-01 -0.5202437E-01  0.9945157E+00  0.4256527E+00  0.0000000E+00  0.0000000E+00
  0.8571429E+00  0.0000000E+00  0.8163265E-01  0.2960710E-01 -0.5202555E-01  0.9945156E+00  0.4256527E+00  0.0000000E+00  0.0000000E+00
  0.8979592E+00  0.0000000E+00  0.8163265E-01  0.2960627E-01 -0.5202639E-01  0.9945154E+00  0.4256526E+00  0.0000000E+00  0.0000000E+00
  0.9387755E+00  0.0000000E+00  0.8163265E-01  0.2960579E-01 -0.5202686E-01  0.9945154E+00  0.4256526E+00  0.0000000E+00  0.0000000E+00
  0.9795918E+00  0.0000000E+00  0.8163265E-01  0.2960568E-01 -0.5202697E-01  0.9945154E+00  0.4256526E+00  0.0000000E+00  0.0000000E+00
  0.1020408E+01  0.0000000E+00  0.8163265E-01  0.2960595E-01 -0.5202670E-01  0.9945154E+00  0.4256526E+00  0.0000000E+00  0.0000000E+00
  0.1061224E+01  0.0000000E+00  0.8163265E-01  0.2960660E-01 -0.5202606E-01  0.9945155E+00  0.4256526E+00  0.0000000E+00  0.0000000E+00
  0.1102041E+01  0.0000000E+00  0.8163265E-01  0.2960761E-01 -0.5202505E-01  0.9945156E+00  0.4256527E+00  0.0000000E+00  0.0000000E+00
  0.1142857E+01  0.0000000E+00  0.8163265E-01  0.2960897E-01 -0.5202369E-01  0.9945158E+00  0.4256528E+00  0.0000000E+00  0.0000000E+00
  0.1183673E+01  0.0000000E+00  0.8163265E-01  0.2961066E-01 -0.5202200E-01  0.9945161E+00  0.4256529E+00  0.0000000E+00  0.0000000E+00
  0.1224490E+01  0.0000000E+00  0.8163265E-01  0.2961265E-01 -0.5202000E-01  0.9945164E+00  0.4256530E+00  0.0000000E+00  0.0000000E+00
  0.1265306E+01  0.0000000E+00  0.8163265E-01  0.2961491E-01 -0.5201774E-01  0.9945167E+00  0.4256531E+00  0.0000000E+00  0.0000000E+00
  0.1306122E+01  0.0000000E+00  0.8163265E-01  0.2961741E-01 -0.5201524E-01  0.9945170E+00  0.4256533E+00  0.0000000E+00  0.0000000E+00
  0.1346939E+01  0.0000000E+00  0.8163265E-01  0.2962011E-01 -0.5201255E-01  0.9945174E+00  0.4256535E+00  0.0000000E+00  0.0000000E+00
  0.1387755E+01  0.0000000E+00  0.8163265E-01  0.2962295E-01 -0.5200970E-01  0.9945178E+00  0.4256536E+00  0.0000000E+00  0.0000000E+00
  0.1428571E+01  0.0000000E+00  0.8163265E-01  0.2962590E-01 -0.5200675E-01  0.9945183E+00  0.4256538E+00  0.0000000E+00  0.0000000E+00
  0.1469388E+01  0.0000000E+00  0.8163265E-01  0.2962891E-01 -0.5200374E-01  0.9945187E+00  0.4256540E+00  0.0000000E+00  0.0000000E+00
  0.1510204E+01  0.0000000E+00  0.8163265E-01  0.2963193E-01 -0.5200072E-01  0.9945191E+00  0.4256542E+00  0.0000000E+00  0.0000000E+00
  0.1551020E+01  0.0000000E+00  0.8163265E-01  0.2963492E-01 -0.5199774E-01  0.9945195E+00  0.4256544E+00  0.0000000E+00  0.0000000E+00
  0.1591837E+01  0.0000000E+00  0.8163265E-01  0.2963782E-01 -0.5199483E-01  0.9945200E+00  0.4256545E+00  0.0000000E+00  0.0000000E+00
  0.1632653E+01  0.0000000E+00  0.8163265E-01  0.2964060E-01 -0.5199206E-01  0.9945204E+00  0.4256547E+00  0.0000000E+00  0.0000000E+00
  0.1673469E+01  0.0000000E+00  0.8163265E-01  0.2964321E-01 -0.5198945E-01  0.9945207E+00  0.4256549E+00  0.0000000E+00  0.0000000E+00
  0.1714286E+01  0.0000000E+00  0.8163265E-01  0.2964561E-01 -0.5198705E-01  0.9945211E+00  0.4256550E+00  0.0000000E+00  0.0000000E+00
  0.1755102E+01  0.0000000E+00  0.8163265E-01  0.2964776E-01 -0.5198489E-01  0.9945214E+00  0.4256552E+00  0.0000000E+00  0.0000000E+00
  0.1795918E+01  0.0000000E+00  0.8163265E-01  0.2964964E-01 -0.5198301E-01  0.9945217E+00  0.4256553E+00  0.0000000E+00  0.0000000E+00
  0.1836735E+01  0.0000000E+00  0.8163265E-01  0.2965122E-01 -0.5198143E-01  0.9945219E+00  0.4256554E+00  0.0000000E+00  0.0000000E+00
  0.1877551E+01  0.0000000E+00  0.8163265E-01  0.2965247E-01 -0.5198018E-01  0.9945221E+00  0.4256554E+00  0.0000000E+00  0.0000000E+00
  0.1918367E+01  0.0000000E+00  0.8163265E-01  0.2965338E-01 -0.5197927E-01  0.9945222E+00  0.4256555E+00  0.0000000E+00  0.0000000E+00
  0.1959184E+01  0.0000000E+00  0.8163265E-01  0.2965393E-01 -0.5197872E-01  0.9945223E+00  0.4256555E+00  0.0000000E+00  0.0000000E+00
  0.2000000E+01  0.0000000E+00  0.8163265E-01  0.2965412E-01 -0.5197854E-01  0.9945223E+00  0.4256555E+00  0.0000000E+00  0.0000000E+00
  0.0000000E+00  0.0000000E+00  0.1224490E+00  0.4876785E-01 -0.7368113E-01  0.9912081E+00  0.4242371E+00  0.0000000E+00  0.0000000E+00
  0.4081633E-01  0.0000000E+00  0.1224490E+00  0.4876758E-01 -0.7368140E-01  0.9912081E+00  0.4242371E+00  0.0000000E+00  0.0000000E+00
  0.8163265E-01  0.0000000E+00  0.1224490E+00  0.4876676E-01 -0.7368222E-01  0.9912080E+00  0.4242370E+00  0.0000000E+00  0.0000000E+00
  0.1224490E+00  0.0000000E+00  0.1224490E+00  0.4876542E-01 -0.7368356E-01  0.9912078E+00  0.4242369E+00  0.0000000E+00  0.0000000E+00
  0.1632653E+00  0.0000000E+00  0.1224490E+00  0.4876357E-01 -0.7368541E-01  0.9912075E+00  0.4242368E+00  0.0000000E+00  0.0000000E+00
  0.2040816E+00  0.0000000E+00  0.1224490E+00  0.4876124E-01 -0.7368774E-01  0.9912071E+00  0.4242366E+00  0.0000000E+00  0.0000000E+00
  0.2448980E+00  0.0000000E+00  0.1224490E+00  0.4875847E-01 -0.7369051E-01  0.9912066E+00  0.4242364E+00  0.0000000E+00  0.0000000E+00
  0.2857143E+00  0.0000000E+00  0.1224490E+00  0.4875530E-01 -0.7369367E-01  0.9912061E+00  0.4242362E+00  0.0000000E+00  0.0000000E+00
  0.3265306E+00  0.0000000E+00  0.1224490E+00  0.4875179E-01 -0.7369718E-01  0.9912056E+00  0.4242360E+00  0.0000000E+00  0.0000000E+00
  0.3673469E+00  0.0000000E+00  0.1224490E+00  0.4874800E-01 -0.7370098E-01  0.9912049E+00  0.4242357E+00  0.0000000E+00  0.0000000E+00
  0.4081633E+00  0.0000000E+00  0.1224490E+00  0.4874398E-01 -0.7370500E-01  0.9912043E+00  0.4242354E+00  0.0000000E+00  0.0000000E+00
  0.4489796E+00  0.0000000E+00  0.1224490E+00  0.4873980E-01 -0.7370918E-01  0.9912036E+00  0.4242352E+00  0.0000000E+00  0.0000000E+00
  0.4897959E+00  0.0000000E+00  0.1224490E+00  0.4873554E-01 -0.7371344E-01  0.9912029E+00  0.4242349E+00  0.0000000E+00  0.0000000E+00
  0.5306122E+00  0.0000000E+00  0.1224490E+00  0.4873126E-01 -0.7371772E-01  0.9912023E+00  0.4242346E+00  0.0000000E+00  0.0000000E+00
  0.5714286E+00  0.0000000E+00  0.1224490E+00  0.4872705E-01 -0.7372193E-01  0.9912016E+00  0.4242343E+00  0.0000000E+00  0.0000000E+00
  0.6122449E+00  0.0000000E+00  0.1224490E+00  0.4872297E-01 -0.7372601E-01  0.9912009E+00  0.4242340E+00  0.0000000E+00  0.0000000E+00
  0.6530612E+00  0.0000000E+00  0.1224490E+00  0.4871910E-01 -0.7372988E-01  0.9912003E+00  0.4242337E+00  0.0000000E+00  0.0000000E+00
  0.6938776E+00  0.0000000E+00  0.1224490E+00  0.4871550E-01 -0.7373348E-01  0.9911997E+00  0.4242335E+00  0.0000000E+00  0.0000000E+00
  0.7346939E+00  0.0000000E+00  0.1224490E+00  0.4871226E-01 -0.7373672E-01  0.9911992E+00  0.4242333E+00  0.0000000E+00  0.0000000E+00
  0.7755102E+00  0.0000000E+00  0.1224490E+00  0.4870941E-01 -0.7373957E-01  0.9911987E+00  0.4242331E+00  0.0000000E+00  0.0000000E+00
  0.8163265E+00  0.0000000E+00  0.1224490E+00  0.4870703E-01 -0.7374195E-01  0.9911983E+00  0.4242329E+00  0.0000000E+00  0.0000000E+00
  0.8571429E+00  0.0000000E+00  0.1224490E+00  0.4870515E-01 -0.7374383E-01  0.9911980E+00  0.4242328E+00  0.0000000E+00  0.0000000E+00
  0.8979592E+00  0.0000000E+00  0.1224490E+00  0.4870381E-01 -0.7374517E-01  0.9911978E+00  0.4242327E+00  0.0000000E+00  0.0000000E+00
  0.9387755E+00  0.0000000E+00  0.1224490E+00  0.4870305E-01 -0.7374593E-01  0.9911977E+00  0.4242326E+00  0.0000000E+00  0.0000000E+00
  0.9795918E+00  0.0000000E+00  0.1224490E+00  0.4870288E-01 -0.7374610E-01  0.9911977E+00  0.4242326E+00  0.0000000E+00  0.0000000E+00
  0.1020408E+01  0.0000000E+00  0.1224490E+00  0.4870330E-01 -0.7374568E-01  0.9911977E+00  0.4242326E+00  0.0000000E+00  0.0000000E+00
  0.1061224E+01  0.0000000E+00  0.1224490E+00  0.4870432E-01 -0.7374465E-01  0.9911979E+00  0.4242327E+00  0.0000000E+00  0.0000000E+00
  0.1102041E+01  0.0000000E+00  0.1224490E+00  0.4870593E-01 -0.7374305E-01  0.9911982E+00  0.4242328E+00  0.0000000E+00  0.0000000E+00
  0.1142857E+01  0.0000000E+00  0.1224490E+00  0.4870809E-01 -0.7374089E-01  0.9911985E+00  0.4242330E+00  0.0000000E+00  0.0000000E+00
  0.1183673E+01  0.0000000E+00  0.1224490E+00  0.4871078E-01 -0.7373820E-01  0.9911990E+00  0.4242332E+00  0.0000000E+00  0.0000000E+00
  0.1224490E+01  0.0000000E+00  0.1224490E+00  0.4871395E-01 -0.7373503E-01  0.9911995E+00  0.4242334E+00  0.0000000E+00  0.0000000E+00
  0.1265306E+01  0.0000000E+00  0.1224490E+00  0.4871755E-01 -0.7373143E-01  0.9912000E+00  0.4242336E+00  0.0000000E+00  0.0000000E+00
  0.1306122E+01  0.0000000E+00  0.1224490E+00  0.4872153E-01 -0.7372745E-01  0.9912007E+00  0.4242339E+00  0.0000000E+00  0.0000000E+00
  0.1346939E+01  0.0000000E+00  0.1224490E+00  0.4872581E-01 -0.7372317E-01  0.9912014E+00  0.4242342E+00  0.0000000E+00  0.0000000E+00
  0.1387755E+01  0.0000000E+00  0.1224490E+00  0.4873034E-01 -0.7371864E-01  0.9912021E+00  0.4242345E+00  0.0000000E+00  0.0000000E+00
  0.1428571E+01  0.0000000E+00  0.1224490E+00  0.4873503E-01 -0.7371395E-01  0.9912029E+00  0.4242348E+00  0.0000000E+00  0.0000000E+00
  0.1469388E+01  0.0000000E+00  0.1224490E+00  0.4873982E-01 -0.7370916E-01  0.9912036E+00  0.4242352E+00  0.0000000E+00  0.0000000E+00
  0.1510204E+01  0.0000000E+00  0.1224490E+00  0.4874462E-01 -0.7370436E-01  0.9912044E+00  0.4242355E+00  0.0000000E+00  0.0000000E+00
  0.1551020E+01  0.0000000E+00  0.1224490E+00  0.4874937E-01 -0.7369961E-01  0.9912052E+00  0.4242358E+00  0.0000000E+00  0.0000000E+00
  0.1591837E+01  0.0000000E+00  0.1224490E+00  0.4875398E-01 -0.7369500E-01  0.9912059E+00  0.4242361E+00  0.0000000E+00  0.0000000E+00
  0.1632653E+01  0.0000000E+00  0.1224490E+00  0.4875840E-01 -0.7369058E-01  0.9912066E+00  0.4242364E+00  0.0000000E+00  0.0000000E+00
  0.1673469E+01  0.0000000E+00  0.1224490E+00  0.4876254E-01 -0.7368644E-01  0.9912073E+00  0.4242367E+00  0.0000000E+00  0.0000000E+00
  0.1714286E+01  0.0000000E+00  0.1224490E+00  0.4876636E-01 -0.7368262E-01  0.9912079E+00  0.4242370E+00  0.0000000E+00  0.0000000E+00
  0.1755102E+01  0.0000000E+00  0.1224490E+00  0.4876979E-01 -0.7367919E-01  0.9912085E+00  0.4242372E+00  0.0000000E+00  0.0000000E+00
  0.1795918E+01  0.0000000E+00  0.1224490E+00  0.4877278E-01 -0.7367620E-01  0.9912089E+00  0.4242374E+00  0.0000000E+00  0.0000000E+00
  0.1836735E+01  0.0000000E+00  0.1224490E+00  0.4877528E-01 -0.7367370E-01  0.9912093E+00  0.4242376E+00  0.0000000E+00  0.0000000E+00
  0.1877551E+01  0.0000000E+00  0.1224490E+00  0.4877727E-01 -0.7367171E-01  0.9912097E+00  0.4242377E+00  0.0000000E+00  0.0000000E+00
  0.1918367E+01  0.0000000E+00  0.1224490E+00  0.4877871E-01 -0.7367027E-01  0.9912099E+00  0.4242378E+00  0.0000000E+00  0.0000000E+00
  0.1959184E+01  0.0000000E+00  0.1224490E+00  0.4877959E-01 -0.7366939E-01  0.9912100E+00  0.4242379E+00  0.0000000E+00  0.0000000E+00
  0.2000000E+01  0.0000000E+00  0.1224490E+00  0.4877988E-01 -0.7366910E-01  0.9912101E+00  0.4242379E+00  0.0000000E+00  0.0000000E+00
  0.0000000E+00  0.0000000E+00  0.1632653E+00  0.7033116E-01 -0.9293415E-01  0.9879867E+00  0.4228583E+00  0.0000000E+00  0.0000000E+00
  0.4081633E-01  0.0000000E+00  0.1632653E+00  0.7033078E-01 -0.9293453E-01  0.9879866E+00  0.4228583E+00  0.0000000E+00  0.0000000E+00
  0.8163265E-01  0.0000000E+00  0.1632653E+00  0.7032964E-01 -0.9293567E-01  0.9879864E+00  0.4228582E+00  0.0000000E+00  0.0000000E+00
  0.1224490E+00  0.0000000E+00  0.1632653E+00  0.7032776E-01 -0.9293755E-01  0.9879861E+00  0.4228581E+00  0.0000000E+00  0.0000000E+00
  0.1632653E+00  0.0000000E+00  0.1632653E+00  0.7032517E-01 -0.9294014E-01  0.9879857E+00  0.4228579E+00  0.0000000E+00  0.0000000E+00
  0.2040816E+00  0.0000000E+00  0.1632653E+00  0.7032191E-01 -0.9294340E-01  0.9879851E+00  0.4228576E+00  0.0000000E+00  0.0000000E+00
  0.2448980E+00  0.0000000E+00  0.1632653E+00  0.7031804E-01 -0.9294727E-01  0.9879844E+00  0.4228573E+00  0.0000000E+00  0.0000000E+00
  0.2857143E+00  0.0000000E+00  0.1632653E+00  0.7031361E-01 -0.9295170E-01  0.9879837E+00  0.4228570E+00  0.0000000E+00  0.0000000E+00
  0.3265306E+00  0.0000000E+00  0.1632653E+00  0.7030869E-01 -0.9295661E-01  0.9879828E+00  0.4228566E+00  0.0000000E+00  0.0000000E+00
  0.3673469E+00  0.0000000E+00  0.1632653E+00  0.7030338E-01 -0.9296193E-01  0.9879819E+00  0.4228562E+00  0.0000000E+00  0.0000000E+00
  0.4081633E+00  0.0000000E+00  0.1632653E+00  0.7029775E-01 -0.9296755E-01  0.9879809E+00  0.4228558E+00  0.0000000E+00  0.0000000E+00
  0.4489796E+00  0.0000000E+00  0.1632653E+00  0.7029190E-01 -0.9297340E-01  0.9879799E+00  0.4228554E+00  0.0000000E+00  0.0000000E+00
  0.4897959E+00  0.0000000E+00  0.1632653E+00  0.7028593E-01 -0.9297938E-01  0.9879789E+00  0.4228550E+00  0.0000000E+00  0.0000000E+00
  0.5306122E+00  0.0000000E+00  0.1632653E+00  0.7027994E-01 -0.9298537E-01  0.9879778E+00  0.4228545E+00  0.0000000E+00  0.0000000E+00
  0.5714286E+00  0.0000000E+00  0.1632653E+00  0.7027403E-01 -0.9299127E-01  0.9879768E+00  0.4228541E+00  0.0000000E+00  0.0000000E+00
  0.6122449E+00  0.0000000E+00  0.1632653E+00  0.7026832E-01 -0.9299699E-01  0.9879758E+00  0.4228536E+00  0.0000000E+00  0.0000000E+00
  0.6530612E+00  0.0000000E+00  0.1632653E+00  0.7026289E-01 -0.9300242E-01  0.9879749E+00  0.4228532E+00  0.0000000E+00  0.0000000E+00
  0.6938776E+00  0.0000000E+00  0.1632653E+00  0.7025785E-01 -0.9300746E-01  0.9879740E+00  0.4228529E+00  0.0000000E+00  0.0000000E+00
  0.7346939E+00  0.0000000E+00  0.1632653E+00  0.7025329E-01 -0.9301202E-01  0.9879732E+00  0.4228525E+00  0.0000000E+00  0.0000000E+00