title = "dataset feddes"
variables = "x", "y", "z", "vx", "vy", "vz"
zone t = "velocities, solution time =  5.000E+01 days        " i =   49, j =   49, k =    1,  f=point
  0.2040816E-01  0.0000000E+00  0.2040816E-01  0.5466296E-06  0.0000000E+00 -0.8512721E-01
  0.6122449E-01  0.0000000E+00  0.2040816E-01  0.1632346E-05  0.0000000E+00 -0.8512474E-01
  0.1020408E+00  0.0000000E+00  0.2040816E-01  0.2693781E-05  0.0000000E+00 -0.8511983E-01
  0.1428571E+00  0.0000000E+00  0.2040816E-01  0.3707336E-05  0.0000000E+00 -0.8511256E-01
  0.1836735E+00  0.0000000E+00  0.2040816E-01  0.4653180E-05  0.0000000E+00 -0.8510306E-01
  0.2244898E+00  0.0000000E+00  0.2040816E-01  0.5518820E-05  0.0000000E+00 -0.8509151E-01
  0.2653061E+00  0.0000000E+00  0.2040816E-01  0.6289545E-05  0.0000000E+00 -0.8507810E-01
  0.3061225E+00  0.0000000E+00  0.2040816E-01  0.6946959E-05  0.0000000E+00 -0.8506307E-01
  0.3469388E+00  0.0000000E+00  0.2040816E-01  0.7477509E-05  0.0000000E+00 -0.8504669E-01
  0.3877551E+00  0.0000000E+00  0.2040816E-01  0.7871258E-05  0.0000000E+00 -0.8502927E-01
  0.4285714E+00  0.0000000E+00  0.2040816E-01  0.8119661E-05  0.0000000E+00 -0.8501111E-01
  0.4693878E+00  0.0000000E+00  0.2040816E-01  0.8215738E-05  0.0000000E+00 -0.8499256E-01
  0.5102041E+00  0.0000000E+00  0.2040816E-01  0.8155064E-05  0.0000000E+00 -0.8497398E-01
  0.5510204E+00  0.0000000E+00  0.2040816E-01  0.7936358E-05  0.0000000E+00 -0.8495571E-01
  0.5918368E+00  0.0000000E+00  0.2040816E-01  0.7561583E-05  0.0000000E+00 -0.8493811E-01
  0.6326531E+00  0.0000000E+00  0.2040816E-01  0.7035840E-05  0.0000000E+00 -0.8492154E-01
  0.6734694E+00  0.0000000E+00  0.2040816E-01  0.6367251E-05  0.0000000E+00 -0.8490633E-01
  0.7142857E+00  0.0000000E+00  0.2040816E-01  0.5566832E-05  0.0000000E+00 -0.8489278E-01
  0.7551020E+00  0.0000000E+00  0.2040816E-01  0.4648342E-05  0.0000000E+00 -0.8488118E-01
  0.7959183E+00  0.0000000E+00  0.2040816E-01  0.3628035E-05  0.0000000E+00 -0.8487179E-01
  0.8367347E+00  0.0000000E+00  0.2040816E-01  0.2524275E-05  0.0000000E+00 -0.8486480E-01
  0.8775510E+00  0.0000000E+00  0.2040816E-01  0.1356986E-05  0.0000000E+00 -0.8486040E-01
  0.9183673E+00  0.0000000E+00  0.2040816E-01  0.1469456E-06  0.0000000E+00 -0.8485869E-01
  0.9591837E+00  0.0000000E+00  0.2040816E-01 -0.1080241E-05  0.0000000E+00 -0.8485975E-01
  0.1000000E+01  0.0000000E+00  0.2040816E-01 -0.2306010E-05  0.0000000E+00 -0.8486359E-01
  0.1040816E+01  0.0000000E+00  0.2040816E-01 -0.3511047E-05  0.0000000E+00 -0.8487020E-01
  0.1081633E+01  0.0000000E+00  0.2040816E-01 -0.4669022E-05  0.0000000E+00 -0.8487948E-01
  0.1122449E+01  0.0000000E+00  0.2040816E-01 -0.5757661E-05  0.0000000E+00 -0.8489132E-01
  0.1163265E+01  0.0000000E+00  0.2040816E-01 -0.6763742E-05  0.0000000E+00 -0.8490553E-01
  0.1204082E+01  0.0000000E+00  0.2040816E-01 -0.7672461E-05  0.0000000E+00 -0.8492192E-01
  0.1244898E+01  0.0000000E+00  0.2040816E-01 -0.8464909E-05  0.0000000E+00 -0.8494024E-01
  0.1285714E+01  0.0000000E+00  0.2040816E-01 -0.9128738E-05  0.0000000E+00 -0.8496022E-01
  0.1326531E+01  0.0000000E+00  0.2040816E-01 -0.9656245E-05  0.0000000E+00 -0.8498154E-01
  0.1367347E+01  0.0000000E+00  0.2040816E-01 -0.1004129E-04  0.0000000E+00 -0.8500391E-01
  0.1408163E+01  0.0000000E+00  0.2040816E-01 -0.1027914E-04  0.0000000E+00 -0.8502698E-01
  0.1448980E+01  0.0000000E+00  0.2040816E-01 -0.1036741E-04  0.0000000E+00 -0.8505042E-01
  0.1489796E+01  0.0000000E+00  0.2040816E-01 -0.1030637E-04  0.0000000E+00 -0.8507390E-01
  0.1530612E+01  0.0000000E+00  0.2040816E-01 -0.1009886E-04  0.0000000E+00 -0.8509707E-01
  0.1571429E+01  0.0000000E+00  0.2040816E-01 -0.9749771E-05  0.0000000E+00 -0.8511961E-01
  0.1612245E+01  0.0000000E+00  0.2040816E-01 -0.9265774E-05  0.0000000E+00 -0.8514120E-01
  0.1653061E+01  0.0000000E+00  0.2040816E-01 -0.8655093E-05  0.0000000E+00 -0.8516155E-01
  0.1693878E+01  0.0000000E+00  0.2040816E-01 -0.7927449E-05  0.0000000E+00 -0.8518038E-01
  0.1734694E+01  0.0000000E+00  0.2040816E-01 -0.7093850E-05  0.0000000E+00 -0.8519744E-01
  0.1775510E+01  0.0000000E+00  0.2040816E-01 -0.6166331E-05  0.0000000E+00 -0.8521250E-01
  0.1816326E+01  0.0000000E+00  0.2040816E-01 -0.5157827E-05  0.0000000E+00 -0.8522536E-01
  0.1857143E+01  0.0000000E+00  0.2040816E-01 -0.4082105E-05  0.0000000E+00 -0.8523586E-01
  0.1897959E+01  0.0000000E+00  0.2040816E-01 -0.2953584E-05  0.0000000E+00 -0.8524385E-01
  0.1938776E+01  0.0000000E+00  0.2040816E-01 -0.1787011E-05  0.0000000E+00 -0.8524923E-01
  0.1989796E+01  0.0000000E+00  0.2040816E-01 -0.5972604E-06  0.0000000E+00 -0.8525194E-01
  0.2040816E-01  0.0000000E+00  0.6122449E-01  0.1500477E-05  0.0000000E+00 -0.8512939E-01
  0.6122449E-01  0.0000000E+00  0.6122449E-01  0.4478683E-05  0.0000000E+00 -0.8512687E-01
  0.1020408E+00  0.0000000E+00  0.6122449E-01  0.7387158E-05  0.0000000E+00 -0.8512188E-01
  0.1428571E+00  0.0000000E+00  0.6122449E-01  0.1016604E-04  0.0000000E+00 -0.8511451E-01
  0.1836735E+00  0.0000000E+00  0.6122449E-01  0.1276263E-04  0.0000000E+00 -0.8510487E-01
  0.2244898E+00  0.0000000E+00  0.6122449E-01  0.1513835E-04  0.0000000E+00 -0.8509314E-01
  0.2653061E+00  0.0000000E+00  0.6122449E-01  0.1725226E-04  0.0000000E+00 -0.8507952E-01
  0.3061225E+00  0.0000000E+00  0.6122449E-01  0.1905631E-04  0.0000000E+00 -0.8506425E-01
  0.3469388E+00  0.0000000E+00  0.6122449E-01  0.2051357E-04  0.0000000E+00 -0.8504761E-01
  0.3877551E+00  0.0000000E+00  0.6122449E-01  0.2159595E-04  0.0000000E+00 -0.8502990E-01
  0.4285714E+00  0.0000000E+00  0.6122449E-01  0.2227952E-04  0.0000000E+00 -0.8501144E-01
  0.4693878E+00  0.0000000E+00  0.6122449E-01  0.2254510E-04  0.0000000E+00 -0.8499259E-01
  0.5102041E+00  0.0000000E+00  0.6122449E-01  0.2238059E-04  0.0000000E+00 -0.8497369E-01
  0.5510204E+00  0.0000000E+00  0.6122449E-01  0.2178245E-04  0.0000000E+00 -0.8495510E-01
  0.5918368E+00  0.0000000E+00  0.6122449E-01  0.2075595E-04  0.0000000E+00 -0.8493720E-01
  0.6326531E+00  0.0000000E+00  0.6122449E-01  0.1931501E-04  0.0000000E+00 -0.8492034E-01
  0.6734694E+00  0.0000000E+00  0.6122449E-01  0.1748185E-04  0.0000000E+00 -0.8490485E-01
  0.7142857E+00  0.0000000E+00  0.6122449E-01  0.1528668E-04  0.0000000E+00 -0.8489105E-01
  0.7551020E+00  0.0000000E+00  0.6122449E-01  0.1276733E-04  0.0000000E+00 -0.8487923E-01
  0.7959183E+00  0.0000000E+00  0.6122449E-01  0.9968472E-05  0.0000000E+00 -0.8486965E-01
  0.8367347E+00  0.0000000E+00  0.6122449E-01  0.6940499E-05  0.0000000E+00 -0.8486252E-01
  0.8775510E+00  0.0000000E+00  0.6122449E-01  0.3738018E-05  0.0000000E+00 -0.8485801E-01
  0.9183673E+00  0.0000000E+00  0.6122449E-01  0.4196753E-06  0.0000000E+00 -0.8485624E-01
  0.9591837E+00  0.0000000E+00  0.6122449E-01 -0.2948874E-05  0.0000000E+00 -0.8485728E-01
  0.1000000E+01  0.0000000E+00  0.6122449E-01 -0.6312465E-05  0.0000000E+00 -0.8486115E-01
  0.1040816E+01  0.0000000E+00  0.6122449E-01 -0.9615038E-05  0.0000000E+00 -0.8486783E-01
  0.1081633E+01  0.0000000E+00  0.6122449E-01 -0.1278972E-04  0.0000000E+00 -0.8487722E-01
  0.1122449E+01  0.0000000E+00  0.6122449E-01 -0.1577741E-04  0.0000000E+00 -0.8488921E-01
  0.1163265E+01  0.0000000E+00  0.6122449E-01 -0.1853668E-04  0.0000000E+00 -0.8490361E-01
  0.1204082E+01  0.0000000E+00  0.6122449E-01 -0.2102625E-04  0.0000000E+00 -0.8492021E-01
  0.1244898E+01  0.0000000E+00  0.6122449E-01 -0.2319733E-04  0.0000000E+00 -0.8493878E-01
  0.1285714E+01  0.0000000E+00  0.6122449E-01 -0.2501646E-04  0.0000000E+00 -0.8495901E-01
  0.1326531E+01  0.0000000E+00  0.6122449E-01 -0.2646163E-04  0.0000000E+00 -0.8498062E-01
  0.1367347E+01  0.0000000E+00  0.6122449E-01 -0.2751562E-04  0.0000000E+00 -0.8500327E-01
  0.1408163E+01  0.0000000E+00  0.6122449E-01 -0.2816582E-04  0.0000000E+00 -0.8502664E-01
  0.1448980E+01  0.0000000E+00  0.6122449E-01 -0.2840599E-04  0.0000000E+00 -0.8505038E-01
  0.1489796E+01  0.0000000E+00  0.6122449E-01 -0.2823710E-04  0.0000000E+00 -0.8507415E-01
  0.1530612E+01  0.0000000E+00  0.6122449E-01 -0.2766690E-04  0.0000000E+00 -0.8509761E-01
  0.1571429E+01  0.0000000E+00  0.6122449E-01 -0.2670894E-04  0.0000000E+00 -0.8512043E-01
  0.1612245E+01  0.0000000E+00  0.6122449E-01 -0.2538162E-04  0.0000000E+00 -0.8514228E-01
  0.1653061E+01  0.0000000E+00  0.6122449E-01 -0.2370755E-04  0.0000000E+00 -0.8516288E-01
  0.1693878E+01  0.0000000E+00  0.6122449E-01 -0.2171333E-04  0.0000000E+00 -0.8518194E-01
  0.1734694E+01  0.0000000E+00  0.6122449E-01 -0.1942914E-04  0.0000000E+00 -0.8519920E-01
  0.1775510E+01  0.0000000E+00  0.6122449E-01 -0.1688805E-04  0.0000000E+00 -0.8521443E-01
  0.1816326E+01  0.0000000E+00  0.6122449E-01 -0.1412553E-04  0.0000000E+00 -0.8522744E-01
  0.1857143E+01  0.0000000E+00  0.6122449E-01 -0.1117918E-04  0.0000000E+00 -0.8523805E-01
  0.1897959E+01  0.0000000E+00  0.6122449E-01 -0.8088381E-05  0.0000000E+00 -0.8524614E-01
  0.1938776E+01  0.0000000E+00  0.6122449E-01 -0.4893517E-05  0.0000000E+00 -0.8525158E-01
  0.1989796E+01  0.0000000E+00  0.6122449E-01 -0.1636325E-05  0.0000000E+00 -0.8525432E-01
  0.2040816E-01  0.0000000E+00  0.1020408E+00  0.2256669E-05  0.0000000E+00 -0.8513317E-01
  0.6122449E-01  0.0000000E+00  0.1020408E+00  0.6735059E-05  0.0000000E+00 -0.8513059E-01
  0.1020408E+00  0.0000000E+00  0.1020408E+00  0.1110488E-04  0.0000000E+00 -0.8512547E-01
  0.1428571E+00  0.0000000E+00  0.1020408E+00  0.1528201E-04  0.0000000E+00 -0.8511790E-01
  0.1836735E+00  0.0000000E+00  0.1020408E+00  0.1919010E-04  0.0000000E+00 -0.8510801E-01
  0.2244898E+00  0.0000000E+00  0.1020408E+00  0.2276562E-04  0.0000000E+00 -0.8509596E-01
  0.2653061E+00  0.0000000E+00  0.1020408E+00  0.2594592E-04  0.0000000E+00 -0.8508198E-01
  0.3061225E+00  0.0000000E+00  0.1020408E+00  0.2866231E-04  0.0000000E+00 -0.8506630E-01
  0.3469388E+00  0.0000000E+00  0.1020408E+00  0.3085956E-04  0.0000000E+00 -0.8504920E-01
  0.3877551E+00  0.0000000E+00  0.1020408E+00  0.3249395E-04  0.0000000E+00 -0.8503100E-01
  0.4285714E+00  0.0000000E+00  0.1020408E+00  0.3352856E-04  0.0000000E+00 -0.8501202E-01
  0.4693878E+00  0.0000000E+00  0.1020408E+00  0.3393429E-04  0.0000000E+00 -0.8499263E-01
  0.5102041E+00  0.0000000E+00  0.1020408E+00  0.3369286E-04  0.0000000E+00 -0.8497318E-01
  0.5510204E+00  0.0000000E+00  0.1020408E+00  0.3279870E-04  0.0000000E+00 -0.8495404E-01
  0.5918368E+00  0.0000000E+00  0.1020408E+00  0.3125948E-04  0.0000000E+00 -0.8493561E-01
  0.6326531E+00  0.0000000E+00  0.1020408E+00  0.2909588E-04  0.0000000E+00 -0.8491823E-01
  0.6734694E+00  0.0000000E+00  0.1020408E+00  0.2634123E-04  0.0000000E+00 -0.8490226E-01
  0.7142857E+00  0.0000000E+00  0.1020408E+00  0.2304099E-04  0.0000000E+00 -0.8488802E-01
  0.7551020E+00  0.0000000E+00  0.1020408E+00  0.1925224E-04  0.0000000E+00 -0.8487582E-01
  0.7959183E+00  0.0000000E+00  0.1020408E+00  0.1504244E-04  0.0000000E+00 -0.8486592E-01
  0.8367347E+00  0.0000000E+00  0.1020408E+00  0.1048745E-04  0.0000000E+00 -0.8485853E-01
  0.8775510E+00  0.0000000E+00  0.1020408E+00  0.5669095E-05  0.0000000E+00 -0.8485384E-01
  0.9183673E+00  0.0000000E+00  0.1020408E+00  0.6782495E-06  0.0000000E+00 -0.8485196E-01
  0.9591837E+00  0.0000000E+00  0.1020408E+00 -0.4390856E-05  0.0000000E+00 -0.8485297E-01
  0.1000000E+01  0.0000000E+00  0.1020408E+00 -0.9451307E-05  0.0000000E+00 -0.8485689E-01
  0.1040816E+01  0.0000000E+00  0.1020408E+00 -0.1441479E-04  0.0000000E+00 -0.8486369E-01
  0.1081633E+01  0.0000000E+00  0.1020408E+00 -0.1918629E-04  0.0000000E+00 -0.8487328E-01
  0.1122449E+01  0.0000000E+00  0.1020408E+00 -0.2368008E-04  0.0000000E+00 -0.8488552E-01
  0.1163265E+01  0.0000000E+00  0.1020408E+00 -0.2782719E-04  0.0000000E+00 -0.8490025E-01
  0.1204082E+01  0.0000000E+00  0.1020408E+00 -0.3156424E-04  0.0000000E+00 -0.8491723E-01
  0.1244898E+01  0.0000000E+00  0.1020408E+00 -0.3482251E-04  0.0000000E+00 -0.8493621E-01
  0.1285714E+01  0.0000000E+00  0.1020408E+00 -0.3755254E-04  0.0000000E+00 -0.8495691E-01
  0.1326531E+01  0.0000000E+00  0.1020408E+00 -0.3971995E-04  0.0000000E+00 -0.8497900E-01
  0.1367347E+01  0.0000000E+00  0.1020408E+00 -0.4129841E-04  0.0000000E+00 -0.8500217E-01
  0.1408163E+01  0.0000000E+00  0.1020408E+00 -0.4226955E-04  0.0000000E+00 -0.8502605E-01
  0.1448980E+01  0.0000000E+00  0.1020408E+00 -0.4262488E-04  0.0000000E+00 -0.8505032E-01
  0.1489796E+01  0.0000000E+00  0.1020408E+00 -0.4236641E-04  0.0000000E+00 -0.8507460E-01
  0.1530612E+01  0.0000000E+00  0.1020408E+00 -0.4150592E-04  0.0000000E+00 -0.8509856E-01
  0.1571429E+01  0.0000000E+00  0.1020408E+00 -0.4006393E-04  0.0000000E+00 -0.8512186E-01
  0.1612245E+01  0.0000000E+00  0.1020408E+00 -0.3806845E-04  0.0000000E+00 -0.8514417E-01
  0.1653061E+01  0.0000000E+00  0.1020408E+00 -0.3555375E-04  0.0000000E+00 -0.8516519E-01
  0.1693878E+01  0.0000000E+00  0.1020408E+00 -0.3255976E-04  0.0000000E+00 -0.8518463E-01
  0.1734694E+01  0.0000000E+00  0.1020408E+00 -0.2913174E-04  0.0000000E+00 -0.8520224E-01
  0.1775510E+01  0.0000000E+00  0.1020408E+00 -0.2531945E-04  0.0000000E+00 -0.8521778E-01
  0.1816326E+01  0.0000000E+00  0.1020408E+00 -0.2117625E-04  0.0000000E+00 -0.8523104E-01
  0.1857143E+01  0.0000000E+00  0.1020408E+00 -0.1675839E-04  0.0000000E+00 -0.8524186E-01
  0.1897959E+01  0.0000000E+00  0.1020408E+00 -0.1212451E-04  0.0000000E+00 -0.8525010E-01
  0.1938776E+01  0.0000000E+00  0.1020408E+00 -0.7334899E-05  0.0000000E+00 -0.8525565E-01
  0.1989796E+01  0.0000000E+00  0.1020408E+00 -0.2453696E-05  0.0000000E+00 -0.8525845E-01
  0.2040816E-01  0.0000000E+00  0.1428571E+00  0.2921093E-05  0.0000000E+00 -0.8513833E-01
  0.6122449E-01  0.0000000E+00  0.1428571E+00  0.8719124E-05  0.0000000E+00 -0.8513566E-01
  0.1020408E+00  0.0000000E+00  0.1428571E+00  0.1437567E-04  0.0000000E+00 -0.8513036E-01
  0.1428571E+00  0.0000000E+00  0.1428571E+00  0.1978434E-04  0.0000000E+00 -0.8512253E-01
  0.1836735E+00  0.0000000E+00  0.1428571E+00  0.2484846E-04  0.0000000E+00 -0.8511229E-01
  0.2244898E+00  0.0000000E+00  0.1428571E+00  0.2948334E-04  0.0000000E+00 -0.8509982E-01
  0.2653061E+00  0.0000000E+00  0.1428571E+00  0.3360700E-04  0.0000000E+00 -0.8508534E-01
  0.3061225E+00  0.0000000E+00  0.1428571E+00  0.3713279E-04  0.0000000E+00 -0.8506910E-01
  0.3469388E+00  0.0000000E+00  0.1428571E+00  0.3998916E-04  0.0000000E+00 -0.8505138E-01
  0.3877551E+00  0.0000000E+00  0.1428571E+00  0.4211802E-04  0.0000000E+00 -0.8503250E-01
  0.4285714E+00  0.0000000E+00  0.1428571E+00  0.4347045E-04  0.0000000E+00 -0.8501281E-01
  0.4693878E+00  0.0000000E+00  0.1428571E+00  0.4400813E-04  0.0000000E+00 -0.8499268E-01
  0.5102041E+00  0.0000000E+00  0.1428571E+00  0.4370688E-04  0.0000000E+00 -0.8497248E-01
  0.5510204E+00  0.0000000E+00  0.1428571E+00  0.4255890E-04  0.0000000E+00 -0.8495259E-01
  0.5918368E+00  0.0000000E+00  0.1428571E+00  0.4057358E-04  0.0000000E+00 -0.8493342E-01
  0.6326531E+00  0.0000000E+00  0.1428571E+00  0.3777737E-04  0.0000000E+00 -0.8491534E-01
  0.6734694E+00  0.0000000E+00  0.1428571E+00  0.3421331E-04  0.0000000E+00 -0.8489871E-01
  0.7142857E+00  0.0000000E+00  0.1428571E+00  0.2994045E-04  0.0000000E+00 -0.8488388E-01
  0.7551020E+00  0.0000000E+00  0.1428571E+00  0.2503299E-04  0.0000000E+00 -0.8487115E-01
  0.7959183E+00  0.0000000E+00  0.1428571E+00  0.1957867E-04  0.0000000E+00 -0.8486081E-01
  0.8367347E+00  0.0000000E+00  0.1428571E+00  0.1367587E-04  0.0000000E+00 -0.8485307E-01
  0.8775510E+00  0.0000000E+00  0.1428571E+00  0.7431090E-05  0.0000000E+00 -0.8484812E-01
  0.9183673E+00  0.0000000E+00  0.1428571E+00  0.9632561E-06  0.0000000E+00 -0.8484610E-01
  0.9591837E+00  0.0000000E+00  0.1428571E+00 -0.5605801E-05  0.0000000E+00 -0.8484707E-01
  0.1000000E+01  0.0000000E+00  0.1428571E+00 -0.1216236E-04  0.0000000E+00 -0.8485105E-01
  0.1040816E+01  0.0000000E+00  0.1428571E+00 -0.1859032E-04  0.0000000E+00 -0.8485802E-01
  0.1081633E+01  0.0000000E+00  0.1428571E+00 -0.2476758E-04  0.0000000E+00 -0.8486788E-01
  0.1122449E+01  0.0000000E+00  0.1428571E+00 -0.3058502E-04  0.0000000E+00 -0.8488048E-01
  0.1163265E+01  0.0000000E+00  0.1428571E+00 -0.3595035E-04  0.0000000E+00 -0.8489565E-01
  0.1204082E+01  0.0000000E+00  0.1428571E+00 -0.4078038E-04  0.0000000E+00 -0.8491315E-01
  0.1244898E+01  0.0000000E+00  0.1428571E+00 -0.4498930E-04  0.0000000E+00 -0.8493271E-01
  0.1285714E+01  0.0000000E+00  0.1428571E+00 -0.4851390E-04  0.0000000E+00 -0.8495404E-01
  0.1326531E+01  0.0000000E+00  0.1428571E+00 -0.5130921E-04  0.0000000E+00 -0.8497680E-01
  0.1367347E+01  0.0000000E+00  0.1428571E+00 -0.5334113E-04  0.0000000E+00 -0.8500065E-01
  0.1408163E+01  0.0000000E+00  0.1428571E+00 -0.5458665E-04  0.0000000E+00 -0.8502525E-01
  0.1448980E+01  0.0000000E+00  0.1428571E+00 -0.5503587E-04  0.0000000E+00 -0.8505022E-01
  0.1489796E+01  0.0000000E+00  0.1428571E+00 -0.5469243E-04  0.0000000E+00 -0.8507521E-01
  0.1530612E+01  0.0000000E+00  0.1428571E+00 -0.5357216E-04  0.0000000E+00 -0.8509985E-01
  0.1571429E+01  0.0000000E+00  0.1428571E+00 -0.5170186E-04  0.0000000E+00 -0.8512380E-01
  0.1612245E+01  0.0000000E+00  0.1428571E+00 -0.4911819E-04  0.0000000E+00 -0.8514674E-01
  0.1653061E+01  0.0000000E+00  0.1428571E+00 -0.4586608E-04  0.0000000E+00 -0.8516833E-01
  0.1693878E+01  0.0000000E+00  0.1428571E+00 -0.4199744E-04  0.0000000E+00 -0.8518830E-01
  0.1734694E+01  0.0000000E+00  0.1428571E+00 -0.3757060E-04  0.0000000E+00 -0.8520638E-01
  0.1775510E+01  0.0000000E+00  0.1428571E+00 -0.3264986E-04  0.0000000E+00 -0.8522233E-01
  0.1816326E+01  0.0000000E+00  0.1428571E+00 -0.2730429E-04  0.0000000E+00 -0.8523594E-01
  0.1857143E+01  0.0000000E+00  0.1428571E+00 -0.2160638E-04  0.0000000E+00 -0.8524705E-01
  0.1897959E+01  0.0000000E+00  0.1428571E+00 -0.1563104E-04  0.0000000E+00 -0.8525550E-01
  0.1938776E+01  0.0000000E+00  0.1428571E+00 -0.9455623E-05  0.0000000E+00 -0.8526119E-01
  0.1989796E+01  0.0000000E+00  0.1428571E+00 -0.3163541E-05  0.0000000E+00 -0.8526406E-01
  0.2040816E-01  0.0000000E+00  0.1836735E+00  0.3531507E-05  0.0000000E+00 -0.8514472E-01
  0.6122449E-01  0.0000000E+00  0.1836735E+00  0.1054096E-04  0.0000000E+00 -0.8514194E-01
  0.1020408E+00  0.0000000E+00  0.1836735E+00  0.1737984E-04  0.0000000E+00 -0.8513643E-01
  0.1428571E+00  0.0000000E+00  0.1836735E+00  0.2392141E-04  0.0000000E+00 -0.8512827E-01
  0.1836735E+00  0.0000000E+00  0.1836735E+00  0.3005031E-04  0.0000000E+00 -0.8511761E-01
  0.2244898E+00  0.0000000E+00  0.1836735E+00  0.3566313E-04  0.0000000E+00 -0.8510462E-01
  0.2653061E+00  0.0000000E+00  0.1836735E+00  0.4066020E-04  0.0000000E+00 -0.8508952E-01
  0.3061225E+00  0.0000000E+00  0.1836735E+00  0.4493820E-04  0.0000000E+00 -0.8507258E-01
  0.3469388E+00  0.0000000E+00  0.1836735E+00  0.4841021E-04  0.0000000E+00 -0.8505409E-01
  0.3877551E+00  0.0000000E+00  0.1836735E+00  0.5100444E-04  0.0000000E+00 -0.8503437E-01
  0.4285714E+00  0.0000000E+00  0.1836735E+00  0.5266030E-04  0.0000000E+00 -0.8501380E-01
  0.4693878E+00  0.0000000E+00  0.1836735E+00  0.5333030E-04  0.0000000E+00 -0.8499275E-01
  0.5102041E+00  0.0000000E+00  0.1836735E+00  0.5298409E-04  0.0000000E+00 -0.8497161E-01
  0.5510204E+00  0.0000000E+00  0.1836735E+00  0.5161122E-04  0.0000000E+00 -0.8495079E-01
  0.5918368E+00  0.0000000E+00  0.1836735E+00  0.4922215E-04  0.0000000E+00 -0.8493070E-01
  0.6326531E+00  0.0000000E+00  0.1836735E+00  0.4584840E-04  0.0000000E+00 -0.8491174E-01
  0.6734694E+00  0.0000000E+00  0.1836735E+00  0.4154198E-04  0.0000000E+00 -0.8489430E-01
  0.7142857E+00  0.0000000E+00  0.1836735E+00  0.3637463E-04  0.0000000E+00 -0.8487872E-01
  0.7551020E+00  0.0000000E+00  0.1836735E+00  0.3043665E-04  0.0000000E+00 -0.8486533E-01
  0.7959183E+00  0.0000000E+00  0.1836735E+00  0.2383455E-04  0.0000000E+00 -0.8485444E-01
  0.8367347E+00  0.0000000E+00  0.1836735E+00  0.1668737E-04  0.0000000E+00 -0.8484626E-01
  0.8775510E+00  0.0000000E+00  0.1836735E+00  0.9125819E-05  0.0000000E+00 -0.8484100E-01
  0.9183673E+00  0.0000000E+00  0.1836735E+00  0.1294198E-05  0.0000000E+00 -0.8483879E-01
  0.9591837E+00  0.0000000E+00  0.1836735E+00 -0.6659574E-05  0.0000000E+00 -0.8483972E-01
  0.1000000E+01  0.0000000E+00  0.1836735E+00 -0.1459565E-04  0.0000000E+00 -0.8484379E-01
  0.1040816E+01  0.0000000E+00  0.1836735E+00 -0.2237258E-04  0.0000000E+00 -0.8485097E-01
  0.1081633E+01  0.0000000E+00  0.1836735E+00 -0.2984276E-04  0.0000000E+00 -0.8486116E-01
  0.1122449E+01  0.0000000E+00  0.1836735E+00 -0.3687494E-04  0.0000000E+00 -0.8487422E-01
  0.1163265E+01  0.0000000E+00  0.1836735E+00 -0.4335614E-04  0.0000000E+00 -0.8488994E-01
  0.1204082E+01  0.0000000E+00  0.1836735E+00 -0.4918519E-04  0.0000000E+00 -0.8490808E-01
  0.1244898E+01  0.0000000E+00  0.1836735E+00 -0.5426054E-04  0.0000000E+00 -0.8492836E-01
  0.1285714E+01  0.0000000E+00  0.1836735E+00 -0.5850649E-04  0.0000000E+00 -0.8495047E-01
  0.1326531E+01  0.0000000E+00  0.1836735E+00 -0.6186896E-04  0.0000000E+00 -0.8497406E-01
  0.1367347E+01  0.0000000E+00  0.1836735E+00 -0.6430741E-04  0.0000000E+00 -0.8499878E-01
  0.1408163E+01  0.0000000E+00  0.1836735E+00 -0.6579507E-04  0.0000000E+00 -0.8502425E-01
  0.1448980E+01  0.0000000E+00  0.1836735E+00 -0.6632127E-04  0.0000000E+00 -0.8505011E-01
  0.1489796E+01  0.0000000E+00  0.1836735E+00 -0.6589174E-04  0.0000000E+00 -0.8507596E-01
  0.1530612E+01  0.0000000E+00  0.1836735E+00 -0.6452688E-04  0.0000000E+00 -0.8510145E-01
  0.1571429E+01  0.0000000E+00  0.1836735E+00 -0.6225973E-04  0.0000000E+00 -0.8512622E-01
  0.1612245E+01  0.0000000E+00  0.1836735E+00 -0.5913502E-04  0.0000000E+00 -0.8514991E-01
  0.1653061E+01  0.0000000E+00  0.1836735E+00 -0.5520769E-04  0.0000000E+00 -0.8517222E-01
  0.1693878E+01  0.0000000E+00  0.1836735E+00 -0.5054105E-04  0.0000000E+00 -0.8519284E-01
  0.1734694E+01  0.0000000E+00  0.1836735E+00 -0.4520557E-04  0.0000000E+00 -0.8521150E-01
  0.1775510E+01  0.0000000E+00  0.1836735E+00 -0.3927848E-04  0.0000000E+00 -0.8522795E-01
  0.1816326E+01  0.0000000E+00  0.1836735E+00 -0.3284310E-04  0.0000000E+00 -0.8524200E-01
  0.1857143E+01  0.0000000E+00  0.1836735E+00 -0.2598670E-04  0.0000000E+00 -0.8525345E-01
  0.1897959E+01  0.0000000E+00  0.1836735E+00 -0.1879848E-04  0.0000000E+00 -0.8526217E-01
  0.1938776E+01  0.0000000E+00  0.1836735E+00 -0.1137109E-04  0.0000000E+00 -0.8526804E-01
  0.1989796E+01  0.0000000E+00  0.1836735E+00 -0.3804523E-05  0.0000000E+00 -0.8527099E-01
  0.2040816E-01  0.0000000E+00  0.2244898E+00  0.4109305E-05  0.0000000E+00 -0.8515227E-01
  0.6122449E-01  0.0000000E+00  0.2244898E+00  0.1226533E-04  0.0000000E+00 -0.8514937E-01
  0.1020408E+00  0.0000000E+00  0.2244898E+00  0.2022403E-04  0.0000000E+00 -0.8514360E-01
  0.1428571E+00  0.0000000E+00  0.2244898E+00  0.2784016E-04  0.0000000E+00 -0.8513506E-01
  0.1836735E+00  0.0000000E+00  0.2244898E+00  0.3498096E-04  0.0000000E+00 -0.8512390E-01
  0.2244898E+00  0.0000000E+00  0.2244898E+00  0.4152571E-04  0.0000000E+00 -0.8511029E-01
  0.2653061E+00  0.0000000E+00  0.2244898E+00  0.4735808E-04  0.0000000E+00 -0.8509447E-01
  0.3061225E+00  0.0000000E+00  0.2244898E+00  0.5235881E-04  0.0000000E+00 -0.8507670E-01
  0.3469388E+00  0.0000000E+00  0.2244898E+00  0.5642606E-04  0.0000000E+00 -0.8505730E-01
  0.3877551E+00  0.0000000E+00  0.2244898E+00  0.5947447E-04  0.0000000E+00 -0.8503660E-01
  0.4285714E+00  0.0000000E+00  0.2244898E+00  0.6143160E-04  0.0000000E+00 -0.8501498E-01
  0.4693878E+00  0.0000000E+00  0.2244898E+00  0.6224032E-04  0.0000000E+00 -0.8499284E-01
  0.5102041E+00  0.0000000E+00  0.2244898E+00  0.6186349E-04  0.0000000E+00 -0.8497059E-01
  0.5510204E+00  0.0000000E+00  0.2244898E+00  0.6028726E-04  0.0000000E+00 -0.8494867E-01
  0.5918368E+00  0.0000000E+00  0.2244898E+00  0.5752260E-04  0.0000000E+00 -0.8492749E-01
  0.6326531E+00  0.0000000E+00  0.2244898E+00  0.5360555E-04  0.0000000E+00 -0.8490749E-01
  0.6734694E+00  0.0000000E+00  0.2244898E+00  0.4859675E-04  0.0000000E+00 -0.8488906E-01
  0.7142857E+00  0.0000000E+00  0.2244898E+00  0.4258033E-04  0.0000000E+00 -0.8487260E-01
  0.7551020E+00  0.0000000E+00  0.2244898E+00  0.3566223E-04  0.0000000E+00 -0.8485844E-01
  0.7959183E+00  0.0000000E+00  0.2244898E+00  0.2796700E-04  0.0000000E+00 -0.8484688E-01
  0.8367347E+00  0.0000000E+00  0.2244898E+00  0.1963332E-04  0.0000000E+00 -0.8483819E-01
  0.8775510E+00  0.0000000E+00  0.2244898E+00  0.1081542E-04  0.0000000E+00 -0.8483256E-01
  0.9183673E+00  0.0000000E+00  0.2244898E+00  0.1682816E-05  0.0000000E+00 -0.8483013E-01
  0.9591837E+00  0.0000000E+00  0.2244898E+00 -0.7591381E-05  0.0000000E+00 -0.8483100E-01
  0.1000000E+01  0.0000000E+00  0.2244898E+00 -0.1684128E-04  0.0000000E+00 -0.8483517E-01
  0.1040816E+01  0.0000000E+00  0.2244898E+00 -0.2590072E-04  0.0000000E+00 -0.8484261E-01
  0.1081633E+01  0.0000000E+00  0.2244898E+00 -0.3459787E-04  0.0000000E+00 -0.8485321E-01
  0.1122449E+01  0.0000000E+00  0.2244898E+00 -0.4278008E-04  0.0000000E+00 -0.8486680E-01
  0.1163265E+01  0.0000000E+00  0.2244898E+00 -0.5031496E-04  0.0000000E+00 -0.8488318E-01
  0.1204082E+01  0.0000000E+00  0.2244898E+00 -0.5708465E-04  0.0000000E+00 -0.8490209E-01
  0.1244898E+01  0.0000000E+00  0.2244898E+00 -0.6297291E-04  0.0000000E+00 -0.8492323E-01
  0.1285714E+01  0.0000000E+00  0.2244898E+00 -0.6789236E-04  0.0000000E+00 -0.8494626E-01
  0.1326531E+01  0.0000000E+00  0.2244898E+00 -0.7178070E-04  0.0000000E+00 -0.8497084E-01
  0.1367347E+01  0.0000000E+00  0.2244898E+00 -0.7459221E-04  0.0000000E+00 -0.8499658E-01
  0.1408163E+01  0.0000000E+00  0.2244898E+00 -0.7629747E-04  0.0000000E+00 -0.8502309E-01
  0.1448980E+01  0.0000000E+00  0.2244898E+00 -0.7688561E-04  0.0000000E+00 -0.8504998E-01
  0.1489796E+01  0.0000000E+00  0.2244898E+00 -0.7636488E-04  0.0000000E+00 -0.8507686E-01
  0.1530612E+01  0.0000000E+00  0.2244898E+00 -0.7476075E-04  0.0000000E+00 -0.8510335E-01
  0.1571429E+01  0.0000000E+00  0.2244898E+00 -0.7211311E-04  0.0000000E+00 -0.8512907E-01
  0.1612245E+01  0.0000000E+00  0.2244898E+00 -0.6847465E-04  0.0000000E+00 -0.8515366E-01
  0.1653061E+01  0.0000000E+00  0.2244898E+00 -0.6390981E-04  0.0000000E+00 -0.8517680E-01
  0.1693878E+01  0.0000000E+00  0.2244898E+00 -0.5849294E-04  0.0000000E+00 -0.8519818E-01
  0.1734694E+01  0.0000000E+00  0.2244898E+00 -0.5230629E-04  0.0000000E+00 -0.8521752E-01
  0.1775510E+01  0.0000000E+00  0.2244898E+00 -0.4543922E-04  0.0000000E+00 -0.8523457E-01
  0.1816326E+01  0.0000000E+00  0.2244898E+00 -0.3798797E-04  0.0000000E+00 -0.8524912E-01
  0.1857143E+01  0.0000000E+00  0.2244898E+00 -0.3005351E-04  0.0000000E+00 -0.8526097E-01
  0.1897959E+01  0.0000000E+00  0.2244898E+00 -0.2173829E-04  0.0000000E+00 -0.8526999E-01
  0.1938776E+01  0.0000000E+00  0.2244898E+00 -0.1314871E-04  0.0000000E+00 -0.8527607E-01
  0.1989796E+01  0.0000000E+00  0.2244898E+00 -0.4399321E-05  0.0000000E+00 -0.8527913E-01
  0.2040816E-01  0.0000000E+00  0.2653061E+00  0.4668931E-05  0.0000000E+00 -0.8516093E-01
  0.6122449E-01  0.0000000E+00  0.2653061E+00  0.1393604E-04  0.0000000E+00 -0.8515788E-01
  0.1020408E+00  0.0000000E+00  0.2653061E+00  0.2298072E-04  0.0000000E+00 -0.8515182E-01
  0.1428571E+00  0.0000000E+00  0.2653061E+00  0.3164070E-04  0.0000000E+00 -0.8514285E-01
  0.1836735E+00  0.0000000E+00  0.2653061E+00  0.3976681E-04  0.0000000E+00 -0.8513112E-01
  0.2244898E+00  0.0000000E+00  0.2653061E+00  0.4722191E-04  0.0000000E+00 -0.8511681E-01
  0.2653061E+00  0.0000000E+00  0.2653061E+00  0.5387369E-04  0.0000000E+00 -0.8510016E-01
  0.3061225E+00  0.0000000E+00  0.2653061E+00  0.5958729E-04  0.0000000E+00 -0.8508146E-01
  0.3469388E+00  0.0000000E+00  0.2653061E+00  0.6424602E-04  0.0000000E+00 -0.8506101E-01
  0.3877551E+00  0.0000000E+00  0.2653061E+00  0.6775070E-04  0.0000000E+00 -0.8503919E-01
  0.4285714E+00  0.0000000E+00  0.2653061E+00  0.7001642E-04  0.0000000E+00 -0.8501637E-01
  0.4693878E+00  0.0000000E+00  0.2653061E+00  0.7097553E-04  0.0000000E+00 -0.8499297E-01
  0.5102041E+00  0.0000000E+00  0.2653061E+00  0.7058296E-04  0.0000000E+00 -0.8496945E-01
  0.5510204E+00  0.0000000E+00  0.2653061E+00  0.6882041E-04  0.0000000E+00 -0.8494624E-01
  0.5918368E+00  0.0000000E+00  0.2653061E+00  0.6569862E-04  0.0000000E+00 -0.8492380E-01
  0.6326531E+00  0.0000000E+00  0.2653061E+00  0.6125796E-04  0.0000000E+00 -0.8490260E-01
  0.6734694E+00  0.0000000E+00  0.2653061E+00  0.5556781E-04  0.0000000E+00 -0.8488305E-01
  0.7142857E+00  0.0000000E+00  0.2653061E+00  0.4872483E-04  0.0000000E+00 -0.8486556E-01
  0.7551020E+00  0.0000000E+00  0.2653061E+00  0.4085048E-04  0.0000000E+00 -0.8485049E-01
  0.7959183E+00  0.0000000E+00  0.2653061E+00  0.3208702E-04  0.0000000E+00 -0.8483818E-01
  0.8367347E+00  0.0000000E+00  0.2653061E+00  0.2259252E-04  0.0000000E+00 -0.8482888E-01
  0.8775510E+00  0.0000000E+00  0.2653061E+00  0.1254412E-04  0.0000000E+00 -0.8482283E-01
  0.9183673E+00  0.0000000E+00  0.2653061E+00  0.2137155E-05  0.0000000E+00 -0.8482016E-01
  0.9591837E+00  0.0000000E+00  0.2653061E+00 -0.8429397E-05  0.0000000E+00 -0.8482096E-01
  0.1000000E+01  0.0000000E+00  0.2653061E+00 -0.1896319E-04  0.0000000E+00 -0.8482526E-01
  0.1040816E+01  0.0000000E+00  0.2653061E+00 -0.2927325E-04  0.0000000E+00 -0.8483300E-01
  0.1081633E+01  0.0000000E+00  0.2653061E+00 -0.3916417E-04  0.0000000E+00 -0.8484406E-01
  0.1122449E+01  0.0000000E+00  0.2653061E+00 -0.4846234E-04  0.0000000E+00 -0.8485828E-01
  0.1163265E+01  0.0000000E+00  0.2653061E+00 -0.5701640E-04  0.0000000E+00 -0.8487542E-01
  0.1204082E+01  0.0000000E+00  0.2653061E+00 -0.6469258E-04  0.0000000E+00 -0.8489522E-01
  0.1244898E+01  0.0000000E+00  0.2653061E+00 -0.7136091E-04  0.0000000E+00 -0.8491735E-01
  0.1285714E+01  0.0000000E+00  0.2653061E+00 -0.7692303E-04  0.0000000E+00 -0.8494145E-01
  0.1326531E+01  0.0000000E+00  0.2653061E+00 -0.8130897E-04  0.0000000E+00 -0.8496716E-01