title = "dataset feddes"
variables = "x", "y", "z", "vx", "vy", "vz"
zone t = "velocities, solution time =  1.800E+01 days        " i =   49, j =   49, k =    1,  f=point
  0.2040816E-01  0.0000000E+00  0.2040816E-01  0.1351437E-06  0.0000000E+00 -0.8607278E-01
  0.6122449E-01  0.0000000E+00  0.2040816E-01  0.4037773E-06  0.0000000E+00 -0.8607217E-01
  0.1020408E+00  0.0000000E+00  0.2040816E-01  0.6664771E-06  0.0000000E+00 -0.8607095E-01
  0.1428571E+00  0.0000000E+00  0.2040816E-01  0.9187514E-06  0.0000000E+00 -0.8606915E-01
  0.1836735E+00  0.0000000E+00  0.2040816E-01  0.1155885E-05  0.0000000E+00 -0.8606679E-01
  0.2244898E+00  0.0000000E+00  0.2040816E-01  0.1374309E-05  0.0000000E+00 -0.8606391E-01
  0.2653061E+00  0.0000000E+00  0.2040816E-01  0.1570752E-05  0.0000000E+00 -0.8606057E-01
  0.3061225E+00  0.0000000E+00  0.2040816E-01  0.1741537E-05  0.0000000E+00 -0.8605680E-01
  0.3469388E+00  0.0000000E+00  0.2040816E-01  0.1883663E-05  0.0000000E+00 -0.8605268E-01
  0.3877551E+00  0.0000000E+00  0.2040816E-01  0.1994675E-05  0.0000000E+00 -0.8604827E-01
  0.4285714E+00  0.0000000E+00  0.2040816E-01  0.2072462E-05  0.0000000E+00 -0.8604364E-01
  0.4693878E+00  0.0000000E+00  0.2040816E-01  0.2115346E-05  0.0000000E+00 -0.8603888E-01
  0.5102041E+00  0.0000000E+00  0.2040816E-01  0.2122214E-05  0.0000000E+00 -0.8603406E-01
  0.5510204E+00  0.0000000E+00  0.2040816E-01  0.2092566E-05  0.0000000E+00 -0.8602927E-01
  0.5918368E+00  0.0000000E+00  0.2040816E-01  0.2026520E-05  0.0000000E+00 -0.8602458E-01
  0.6326531E+00  0.0000000E+00  0.2040816E-01  0.1924814E-05  0.0000000E+00 -0.8602009E-01
  0.6734694E+00  0.0000000E+00  0.2040816E-01  0.1788806E-05  0.0000000E+00 -0.8601587E-01
  0.7142857E+00  0.0000000E+00  0.2040816E-01  0.1620482E-05  0.0000000E+00 -0.8601199E-01
  0.7551020E+00  0.0000000E+00  0.2040816E-01  0.1422446E-05  0.0000000E+00 -0.8600853E-01
  0.7959183E+00  0.0000000E+00  0.2040816E-01  0.1197886E-05  0.0000000E+00 -0.8600555E-01
  0.8367347E+00  0.0000000E+00  0.2040816E-01  0.9505288E-06  0.0000000E+00 -0.8600311E-01
  0.8775510E+00  0.0000000E+00  0.2040816E-01  0.6845721E-06  0.0000000E+00 -0.8600125E-01
  0.9183673E+00  0.0000000E+00  0.2040816E-01  0.4046115E-06  0.0000000E+00 -0.8600001E-01
  0.9591837E+00  0.0000000E+00  0.2040816E-01  0.1155678E-06  0.0000000E+00 -0.8599942E-01
  0.1000000E+01  0.0000000E+00  0.2040816E-01 -0.1776293E-06  0.0000000E+00 -0.8599949E-01
  0.1040816E+01  0.0000000E+00  0.2040816E-01 -0.4693446E-06  0.0000000E+00 -0.8600022E-01
  0.1081633E+01  0.0000000E+00  0.2040816E-01 -0.7549230E-06  0.0000000E+00 -0.8600162E-01
  0.1122449E+01  0.0000000E+00  0.2040816E-01 -0.1029558E-05  0.0000000E+00 -0.8600364E-01
  0.1163265E+01  0.0000000E+00  0.2040816E-01 -0.1287682E-05  0.0000000E+00 -0.8600628E-01
  0.1204082E+01  0.0000000E+00  0.2040816E-01 -0.1525128E-05  0.0000000E+00 -0.8600948E-01
  0.1244898E+01  0.0000000E+00  0.2040816E-01 -0.1738291E-05  0.0000000E+00 -0.8601319E-01
  0.1285714E+01  0.0000000E+00  0.2040816E-01 -0.1923218E-05  0.0000000E+00 -0.8601735E-01
  0.1326531E+01  0.0000000E+00  0.2040816E-01 -0.2076906E-05  0.0000000E+00 -0.8602190E-01
  0.1367347E+01  0.0000000E+00  0.2040816E-01 -0.2197111E-05  0.0000000E+00 -0.8602676E-01
  0.1408163E+01  0.0000000E+00  0.2040816E-01 -0.2282079E-05  0.0000000E+00 -0.8603186E-01
  0.1448980E+01  0.0000000E+00  0.2040816E-01 -0.2330613E-05  0.0000000E+00 -0.8603710E-01
  0.1489796E+01  0.0000000E+00  0.2040816E-01 -0.2342172E-05  0.0000000E+00 -0.8604241E-01
  0.1530612E+01  0.0000000E+00  0.2040816E-01 -0.2316874E-05  0.0000000E+00 -0.8604771E-01
  0.1571429E+01  0.0000000E+00  0.2040816E-01 -0.2255433E-05  0.0000000E+00 -0.8605291E-01
  0.1612245E+01  0.0000000E+00  0.2040816E-01 -0.2159105E-05  0.0000000E+00 -0.8605793E-01
  0.1653061E+01  0.0000000E+00  0.2040816E-01 -0.2029642E-05  0.0000000E+00 -0.8606270E-01
  0.1693878E+01  0.0000000E+00  0.2040816E-01 -0.1869260E-05  0.0000000E+00 -0.8606713E-01
  0.1734694E+01  0.0000000E+00  0.2040816E-01 -0.1680602E-05  0.0000000E+00 -0.8607117E-01
  0.1775510E+01  0.0000000E+00  0.2040816E-01 -0.1466683E-05  0.0000000E+00 -0.8607475E-01
  0.1816326E+01  0.0000000E+00  0.2040816E-01 -0.1230848E-05  0.0000000E+00 -0.8607781E-01
  0.1857143E+01  0.0000000E+00  0.2040816E-01 -0.9767138E-06  0.0000000E+00 -0.8608033E-01
  0.1897959E+01  0.0000000E+00  0.2040816E-01 -0.7081289E-06  0.0000000E+00 -0.8608224E-01
  0.1938776E+01  0.0000000E+00  0.2040816E-01 -0.4291320E-06  0.0000000E+00 -0.8608353E-01
  0.1989796E+01  0.0000000E+00  0.2040816E-01 -0.1439396E-06  0.0000000E+00 -0.8608419E-01
  0.2040816E-01  0.0000000E+00  0.6122449E-01  0.3705844E-06  0.0000000E+00 -0.8607332E-01
  0.6122449E-01  0.0000000E+00  0.6122449E-01  0.1107106E-05  0.0000000E+00 -0.8607269E-01
  0.1020408E+00  0.0000000E+00  0.6122449E-01  0.1827029E-05  0.0000000E+00 -0.8607146E-01
  0.1428571E+00  0.0000000E+00  0.6122449E-01  0.2518311E-05  0.0000000E+00 -0.8606963E-01
  0.1836735E+00  0.0000000E+00  0.6122449E-01  0.3168518E-05  0.0000000E+00 -0.8606724E-01
  0.2244898E+00  0.0000000E+00  0.6122449E-01  0.3767463E-05  0.0000000E+00 -0.8606432E-01
  0.2653061E+00  0.0000000E+00  0.6122449E-01  0.4306028E-05  0.0000000E+00 -0.8606092E-01
  0.3061225E+00  0.0000000E+00  0.6122449E-01  0.4774383E-05  0.0000000E+00 -0.8605710E-01
  0.3469388E+00  0.0000000E+00  0.6122449E-01  0.5164303E-05  0.0000000E+00 -0.8605292E-01
  0.3877551E+00  0.0000000E+00  0.6122449E-01  0.5468960E-05  0.0000000E+00 -0.8604844E-01
  0.4285714E+00  0.0000000E+00  0.6122449E-01  0.5682538E-05  0.0000000E+00 -0.8604375E-01
  0.4693878E+00  0.0000000E+00  0.6122449E-01  0.5800445E-05  0.0000000E+00 -0.8603892E-01
  0.5102041E+00  0.0000000E+00  0.6122449E-01  0.5819629E-05  0.0000000E+00 -0.8603403E-01
  0.5510204E+00  0.0000000E+00  0.6122449E-01  0.5738701E-05  0.0000000E+00 -0.8602916E-01
  0.5918368E+00  0.0000000E+00  0.6122449E-01  0.5557958E-05  0.0000000E+00 -0.8602440E-01
  0.6326531E+00  0.0000000E+00  0.6122449E-01  0.5279393E-05  0.0000000E+00 -0.8601984E-01
  0.6734694E+00  0.0000000E+00  0.6122449E-01  0.4906718E-05  0.0000000E+00 -0.8601555E-01
  0.7142857E+00  0.0000000E+00  0.6122449E-01  0.4445369E-05  0.0000000E+00 -0.8601161E-01
  0.7551020E+00  0.0000000E+00  0.6122449E-01  0.3902478E-05  0.0000000E+00 -0.8600810E-01
  0.7959183E+00  0.0000000E+00  0.6122449E-01  0.3286787E-05  0.0000000E+00 -0.8600507E-01
  0.8367347E+00  0.0000000E+00  0.6122449E-01  0.2608516E-05  0.0000000E+00 -0.8600258E-01
  0.8775510E+00  0.0000000E+00  0.6122449E-01  0.1879178E-05  0.0000000E+00 -0.8600069E-01
  0.9183673E+00  0.0000000E+00  0.6122449E-01  0.1111374E-05  0.0000000E+00 -0.8599943E-01
  0.9591837E+00  0.0000000E+00  0.6122449E-01  0.3187459E-06  0.0000000E+00 -0.8599883E-01
  0.1000000E+01  0.0000000E+00  0.6122449E-01 -0.4852940E-06  0.0000000E+00 -0.8599889E-01
  0.1040816E+01  0.0000000E+00  0.6122449E-01 -0.1285632E-05  0.0000000E+00 -0.8599964E-01
  0.1081633E+01  0.0000000E+00  0.6122449E-01 -0.2068783E-05  0.0000000E+00 -0.8600105E-01
  0.1122449E+01  0.0000000E+00  0.6122449E-01 -0.2821694E-05  0.0000000E+00 -0.8600310E-01
  0.1163265E+01  0.0000000E+00  0.6122449E-01 -0.3529685E-05  0.0000000E+00 -0.8600577E-01
  0.1204082E+01  0.0000000E+00  0.6122449E-01 -0.4180872E-05  0.0000000E+00 -0.8600902E-01
  0.1244898E+01  0.0000000E+00  0.6122449E-01 -0.4765196E-05  0.0000000E+00 -0.8601278E-01
  0.1285714E+01  0.0000000E+00  0.6122449E-01 -0.5272112E-05  0.0000000E+00 -0.8601700E-01
  0.1326531E+01  0.0000000E+00  0.6122449E-01 -0.5693394E-05  0.0000000E+00 -0.8602162E-01
  0.1367347E+01  0.0000000E+00  0.6122449E-01 -0.6022801E-05  0.0000000E+00 -0.8602655E-01
  0.1408163E+01  0.0000000E+00  0.6122449E-01 -0.6255520E-05  0.0000000E+00 -0.8603171E-01
  0.1448980E+01  0.0000000E+00  0.6122449E-01 -0.6388314E-05  0.0000000E+00 -0.8603703E-01
  0.1489796E+01  0.0000000E+00  0.6122449E-01 -0.6419743E-05  0.0000000E+00 -0.8604242E-01
  0.1530612E+01  0.0000000E+00  0.6122449E-01 -0.6350148E-05  0.0000000E+00 -0.8604779E-01
  0.1571429E+01  0.0000000E+00  0.6122449E-01 -0.6181499E-05  0.0000000E+00 -0.8605306E-01
  0.1612245E+01  0.0000000E+00  0.6122449E-01 -0.5917247E-05  0.0000000E+00 -0.8605815E-01
  0.1653061E+01  0.0000000E+00  0.6122449E-01 -0.5562212E-05  0.0000000E+00 -0.8606298E-01
  0.1693878E+01  0.0000000E+00  0.6122449E-01 -0.5122486E-05  0.0000000E+00 -0.8606747E-01
  0.1734694E+01  0.0000000E+00  0.6122449E-01 -0.4605319E-05  0.0000000E+00 -0.8607156E-01
  0.1775510E+01  0.0000000E+00  0.6122449E-01 -0.4018986E-05  0.0000000E+00 -0.8607519E-01
  0.1816326E+01  0.0000000E+00  0.6122449E-01 -0.3372648E-05  0.0000000E+00 -0.8607829E-01
  0.1857143E+01  0.0000000E+00  0.6122449E-01 -0.2676212E-05  0.0000000E+00 -0.8608084E-01
  0.1897959E+01  0.0000000E+00  0.6122449E-01 -0.1940207E-05  0.0000000E+00 -0.8608278E-01
  0.1938776E+01  0.0000000E+00  0.6122449E-01 -0.1175683E-05  0.0000000E+00 -0.8608409E-01
  0.1989796E+01  0.0000000E+00  0.6122449E-01 -0.3942742E-06  0.0000000E+00 -0.8608475E-01
  0.2040816E-01  0.0000000E+00  0.1020408E+00  0.5567489E-06  0.0000000E+00 -0.8607423E-01
  0.6122449E-01  0.0000000E+00  0.1020408E+00  0.1663133E-05  0.0000000E+00 -0.8607359E-01
  0.1020408E+00  0.0000000E+00  0.1020408E+00  0.2744222E-05  0.0000000E+00 -0.8607233E-01
  0.1428571E+00  0.0000000E+00  0.1020408E+00  0.3782162E-05  0.0000000E+00 -0.8607046E-01
  0.1836735E+00  0.0000000E+00  0.1020408E+00  0.4759060E-05  0.0000000E+00 -0.8606801E-01
  0.2244898E+00  0.0000000E+00  0.1020408E+00  0.5659145E-05  0.0000000E+00 -0.8606502E-01
  0.2653061E+00  0.0000000E+00  0.1020408E+00  0.6468457E-05  0.0000000E+00 -0.8606154E-01
  0.3061225E+00  0.0000000E+00  0.1020408E+00  0.7172584E-05  0.0000000E+00 -0.8605762E-01
  0.3469388E+00  0.0000000E+00  0.1020408E+00  0.7759165E-05  0.0000000E+00 -0.8605334E-01
  0.3877551E+00  0.0000000E+00  0.1020408E+00  0.8217786E-05  0.0000000E+00 -0.8604875E-01
  0.4285714E+00  0.0000000E+00  0.1020408E+00  0.8539644E-05  0.0000000E+00 -0.8604394E-01
  0.4693878E+00  0.0000000E+00  0.1020408E+00  0.8717836E-05  0.0000000E+00 -0.8603898E-01
  0.5102041E+00  0.0000000E+00  0.1020408E+00  0.8747748E-05  0.0000000E+00 -0.8603396E-01
  0.5510204E+00  0.0000000E+00  0.1020408E+00  0.8627230E-05  0.0000000E+00 -0.8602897E-01
  0.5918368E+00  0.0000000E+00  0.1020408E+00  0.8356656E-05  0.0000000E+00 -0.8602409E-01
  0.6326531E+00  0.0000000E+00  0.1020408E+00  0.7938956E-05  0.0000000E+00 -0.8601940E-01
  0.6734694E+00  0.0000000E+00  0.1020408E+00  0.7379659E-05  0.0000000E+00 -0.8601499E-01
  0.7142857E+00  0.0000000E+00  0.1020408E+00  0.6686903E-05  0.0000000E+00 -0.8601095E-01
  0.7551020E+00  0.0000000E+00  0.1020408E+00  0.5871386E-05  0.0000000E+00 -0.8600733E-01
  0.7959183E+00  0.0000000E+00  0.1020408E+00  0.4946239E-05  0.0000000E+00 -0.8600422E-01
  0.8367347E+00  0.0000000E+00  0.1020408E+00  0.3926830E-05  0.0000000E+00 -0.8600166E-01
  0.8775510E+00  0.0000000E+00  0.1020408E+00  0.2830491E-05  0.0000000E+00 -0.8599971E-01
  0.9183673E+00  0.0000000E+00  0.1020408E+00  0.1676178E-05  0.0000000E+00 -0.8599841E-01
  0.9591837E+00  0.0000000E+00  0.1020408E+00  0.4844759E-06  0.0000000E+00 -0.8599778E-01
  0.1000000E+01  0.0000000E+00  0.1020408E+00 -0.7242496E-06  0.0000000E+00 -0.8599785E-01
  0.1040816E+01  0.0000000E+00  0.1020408E+00 -0.1927906E-05  0.0000000E+00 -0.8599860E-01
  0.1081633E+01  0.0000000E+00  0.1020408E+00 -0.3105387E-05  0.0000000E+00 -0.8600004E-01
  0.1122449E+01  0.0000000E+00  0.1020408E+00 -0.4236918E-05  0.0000000E+00 -0.8600215E-01
  0.1163265E+01  0.0000000E+00  0.1020408E+00 -0.5301303E-05  0.0000000E+00 -0.8600488E-01
  0.1204082E+01  0.0000000E+00  0.1020408E+00 -0.6280142E-05  0.0000000E+00 -0.8600821E-01
  0.1244898E+01  0.0000000E+00  0.1020408E+00 -0.7157984E-05  0.0000000E+00 -0.8601206E-01
  0.1285714E+01  0.0000000E+00  0.1020408E+00 -0.7919410E-05  0.0000000E+00 -0.8601639E-01
  0.1326531E+01  0.0000000E+00  0.1020408E+00 -0.8552081E-05  0.0000000E+00 -0.8602111E-01
  0.1367347E+01  0.0000000E+00  0.1020408E+00 -0.9046499E-05  0.0000000E+00 -0.8602616E-01
  0.1408163E+01  0.0000000E+00  0.1020408E+00 -0.9395448E-05  0.0000000E+00 -0.8603145E-01
  0.1448980E+01  0.0000000E+00  0.1020408E+00 -0.9594172E-05  0.0000000E+00 -0.8603690E-01
  0.1489796E+01  0.0000000E+00  0.1020408E+00 -0.9640600E-05  0.0000000E+00 -0.8604242E-01
  0.1530612E+01  0.0000000E+00  0.1020408E+00 -0.9535299E-05  0.0000000E+00 -0.8604792E-01
  0.1571429E+01  0.0000000E+00  0.1020408E+00 -0.9281273E-05  0.0000000E+00 -0.8605331E-01
  0.1612245E+01  0.0000000E+00  0.1020408E+00 -0.8883752E-05  0.0000000E+00 -0.8605852E-01
  0.1653061E+01  0.0000000E+00  0.1020408E+00 -0.8350026E-05  0.0000000E+00 -0.8606346E-01
  0.1693878E+01  0.0000000E+00  0.1020408E+00 -0.7689287E-05  0.0000000E+00 -0.8606805E-01
  0.1734694E+01  0.0000000E+00  0.1020408E+00 -0.6912455E-05  0.0000000E+00 -0.8607224E-01
  0.1775510E+01  0.0000000E+00  0.1020408E+00 -0.6031976E-05  0.0000000E+00 -0.8607595E-01
  0.1816326E+01  0.0000000E+00  0.1020408E+00 -0.5061602E-05  0.0000000E+00 -0.8607912E-01
  0.1857143E+01  0.0000000E+00  0.1020408E+00 -0.4016179E-05  0.0000000E+00 -0.8608172E-01
  0.1897959E+01  0.0000000E+00  0.1020408E+00 -0.2911479E-05  0.0000000E+00 -0.8608371E-01
  0.1938776E+01  0.0000000E+00  0.1020408E+00 -0.1764064E-05  0.0000000E+00 -0.8608505E-01
  0.1989796E+01  0.0000000E+00  0.1020408E+00 -0.5914289E-06  0.0000000E+00 -0.8608572E-01
  0.2040816E-01  0.0000000E+00  0.1428571E+00  0.7198992E-06  0.0000000E+00 -0.8607547E-01
  0.6122449E-01  0.0000000E+00  0.1428571E+00  0.2150305E-05  0.0000000E+00 -0.8607481E-01
  0.1020408E+00  0.0000000E+00  0.1428571E+00  0.3547950E-05  0.0000000E+00 -0.8607351E-01
  0.1428571E+00  0.0000000E+00  0.1428571E+00  0.4889779E-05  0.0000000E+00 -0.8607158E-01
  0.1836735E+00  0.0000000E+00  0.1428571E+00  0.6153209E-05  0.0000000E+00 -0.8606905E-01
  0.2244898E+00  0.0000000E+00  0.1428571E+00  0.7317730E-05  0.0000000E+00 -0.8606596E-01
  0.2653061E+00  0.0000000E+00  0.1428571E+00  0.8365064E-05  0.0000000E+00 -0.8606237E-01
  0.3061225E+00  0.0000000E+00  0.1428571E+00  0.9276788E-05  0.0000000E+00 -0.8605832E-01
  0.3469388E+00  0.0000000E+00  0.1428571E+00  0.1003689E-04  0.0000000E+00 -0.8605390E-01
  0.3877551E+00  0.0000000E+00  0.1428571E+00  0.1063177E-04  0.0000000E+00 -0.8604916E-01
  0.4285714E+00  0.0000000E+00  0.1428571E+00  0.1104996E-04  0.0000000E+00 -0.8604418E-01
  0.4693878E+00  0.0000000E+00  0.1428571E+00  0.1128246E-04  0.0000000E+00 -0.8603906E-01
  0.5102041E+00  0.0000000E+00  0.1428571E+00  0.1132321E-04  0.0000000E+00 -0.8603387E-01
  0.5510204E+00  0.0000000E+00  0.1428571E+00  0.1116934E-04  0.0000000E+00 -0.8602870E-01
  0.5918368E+00  0.0000000E+00  0.1428571E+00  0.1082118E-04  0.0000000E+00 -0.8602364E-01
  0.6326531E+00  0.0000000E+00  0.1428571E+00  0.1028242E-04  0.0000000E+00 -0.8601879E-01
  0.6734694E+00  0.0000000E+00  0.1428571E+00  0.9560124E-05  0.0000000E+00 -0.8601423E-01
  0.7142857E+00  0.0000000E+00  0.1428571E+00  0.8664759E-05  0.0000000E+00 -0.8601003E-01
  0.7551020E+00  0.0000000E+00  0.1428571E+00  0.7610129E-05  0.0000000E+00 -0.8600628E-01
  0.7959183E+00  0.0000000E+00  0.1428571E+00  0.6413217E-05  0.0000000E+00 -0.8600305E-01
  0.8367347E+00  0.0000000E+00  0.1428571E+00  0.5093909E-05  0.0000000E+00 -0.8600039E-01
  0.8775510E+00  0.0000000E+00  0.1428571E+00  0.3674677E-05  0.0000000E+00 -0.8599837E-01
  0.9183673E+00  0.0000000E+00  0.1428571E+00  0.2180218E-05  0.0000000E+00 -0.8599701E-01
  0.9591837E+00  0.0000000E+00  0.1428571E+00  0.6369967E-06  0.0000000E+00 -0.8599635E-01
  0.1000000E+01  0.0000000E+00  0.1428571E+00 -0.9281121E-06  0.0000000E+00 -0.8599641E-01
  0.1040816E+01  0.0000000E+00  0.1428571E+00 -0.2486852E-05  0.0000000E+00 -0.8599718E-01
  0.1081633E+01  0.0000000E+00  0.1428571E+00 -0.4011660E-05  0.0000000E+00 -0.8599866E-01
  0.1122449E+01  0.0000000E+00  0.1428571E+00 -0.5476451E-05  0.0000000E+00 -0.8600083E-01
  0.1163265E+01  0.0000000E+00  0.1428571E+00 -0.6854287E-05  0.0000000E+00 -0.8600366E-01
  0.1204082E+01  0.0000000E+00  0.1428571E+00 -0.8121164E-05  0.0000000E+00 -0.8600709E-01
  0.1244898E+01  0.0000000E+00  0.1428571E+00 -0.9256775E-05  0.0000000E+00 -0.8601107E-01
  0.1285714E+01  0.0000000E+00  0.1428571E+00 -0.1024142E-04  0.0000000E+00 -0.8601554E-01
  0.1326531E+01  0.0000000E+00  0.1428571E+00 -0.1105919E-04  0.0000000E+00 -0.8602042E-01
  0.1367347E+01  0.0000000E+00  0.1428571E+00 -0.1169773E-04  0.0000000E+00 -0.8602563E-01
  0.1408163E+01  0.0000000E+00  0.1428571E+00 -0.1214780E-04  0.0000000E+00 -0.8603109E-01
  0.1448980E+01  0.0000000E+00  0.1428571E+00 -0.1240337E-04  0.0000000E+00 -0.8603672E-01
  0.1489796E+01  0.0000000E+00  0.1428571E+00 -0.1246192E-04  0.0000000E+00 -0.8604241E-01
  0.1530612E+01  0.0000000E+00  0.1428571E+00 -0.1232427E-04  0.0000000E+00 -0.8604808E-01
  0.1571429E+01  0.0000000E+00  0.1428571E+00 -0.1199443E-04  0.0000000E+00 -0.8605365E-01
  0.1612245E+01  0.0000000E+00  0.1428571E+00 -0.1147924E-04  0.0000000E+00 -0.8605901E-01
  0.1653061E+01  0.0000000E+00  0.1428571E+00 -0.1078823E-04  0.0000000E+00 -0.8606411E-01
  0.1693878E+01  0.0000000E+00  0.1428571E+00 -0.9933380E-05  0.0000000E+00 -0.8606884E-01
  0.1734694E+01  0.0000000E+00  0.1428571E+00 -0.8928847E-05  0.0000000E+00 -0.8607315E-01
  0.1775510E+01  0.0000000E+00  0.1428571E+00 -0.7790756E-05  0.0000000E+00 -0.8607697E-01
  0.1816326E+01  0.0000000E+00  0.1428571E+00 -0.6536883E-05  0.0000000E+00 -0.8608025E-01
  0.1857143E+01  0.0000000E+00  0.1428571E+00 -0.5186371E-05  0.0000000E+00 -0.8608292E-01
  0.1897959E+01  0.0000000E+00  0.1428571E+00 -0.3759520E-05  0.0000000E+00 -0.8608497E-01
  0.1938776E+01  0.0000000E+00  0.1428571E+00 -0.2277725E-05  0.0000000E+00 -0.8608634E-01
  0.1989796E+01  0.0000000E+00  0.1428571E+00 -0.7634552E-06  0.0000000E+00 -0.8608704E-01
  0.2040816E-01  0.0000000E+00  0.1836735E+00  0.8690484E-06  0.0000000E+00 -0.8607700E-01
  0.6122449E-01  0.0000000E+00  0.1836735E+00  0.2595482E-05  0.0000000E+00 -0.8607632E-01
  0.1020408E+00  0.0000000E+00  0.1836735E+00  0.4282444E-05  0.0000000E+00 -0.8607496E-01
  0.1428571E+00  0.0000000E+00  0.1836735E+00  0.5902219E-05  0.0000000E+00 -0.8607296E-01
  0.1836735E+00  0.0000000E+00  0.1836735E+00  0.7427925E-05  0.0000000E+00 -0.8607033E-01
  0.2244898E+00  0.0000000E+00  0.1836735E+00  0.8834825E-05  0.0000000E+00 -0.8606712E-01
  0.2653061E+00  0.0000000E+00  0.1836735E+00  0.1010069E-04  0.0000000E+00 -0.8606339E-01
  0.3061225E+00  0.0000000E+00  0.1836735E+00  0.1120342E-04  0.0000000E+00 -0.8605919E-01
  0.3469388E+00  0.0000000E+00  0.1836735E+00  0.1212362E-04  0.0000000E+00 -0.8605459E-01
  0.3877551E+00  0.0000000E+00  0.1836735E+00  0.1284475E-04  0.0000000E+00 -0.8604966E-01
  0.4285714E+00  0.0000000E+00  0.1836735E+00  0.1335280E-04  0.0000000E+00 -0.8604448E-01
  0.4693878E+00  0.0000000E+00  0.1836735E+00  0.1363682E-04  0.0000000E+00 -0.8603914E-01
  0.5102041E+00  0.0000000E+00  0.1836735E+00  0.1368932E-04  0.0000000E+00 -0.8603374E-01
  0.5510204E+00  0.0000000E+00  0.1836735E+00  0.1350663E-04  0.0000000E+00 -0.8602835E-01
  0.5918368E+00  0.0000000E+00  0.1836735E+00  0.1308898E-04  0.0000000E+00 -0.8602309E-01
  0.6326531E+00  0.0000000E+00  0.1836735E+00  0.1244065E-04  0.0000000E+00 -0.8601803E-01
  0.6734694E+00  0.0000000E+00  0.1836735E+00  0.1157003E-04  0.0000000E+00 -0.8601326E-01
  0.7142857E+00  0.0000000E+00  0.1836735E+00  0.1048967E-04  0.0000000E+00 -0.8600888E-01
  0.7551020E+00  0.0000000E+00  0.1836735E+00  0.9216195E-05  0.0000000E+00 -0.8600497E-01
  0.7959183E+00  0.0000000E+00  0.1836735E+00  0.7770103E-05  0.0000000E+00 -0.8600159E-01
  0.8367347E+00  0.0000000E+00  0.1836735E+00  0.6175441E-05  0.0000000E+00 -0.8599881E-01
  0.8775510E+00  0.0000000E+00  0.1836735E+00  0.4459380E-05  0.0000000E+00 -0.8599668E-01
  0.9183673E+00  0.0000000E+00  0.1836735E+00  0.2652071E-05  0.0000000E+00 -0.8599526E-01
  0.9591837E+00  0.0000000E+00  0.1836735E+00  0.7853761E-06  0.0000000E+00 -0.8599456E-01
  0.1000000E+01  0.0000000E+00  0.1836735E+00 -0.1107871E-05  0.0000000E+00 -0.8599461E-01
  0.1040816E+01  0.0000000E+00  0.1836735E+00 -0.2993425E-05  0.0000000E+00 -0.8599541E-01
  0.1081633E+01  0.0000000E+00  0.1836735E+00 -0.4837852E-05  0.0000000E+00 -0.8599694E-01
  0.1122449E+01  0.0000000E+00  0.1836735E+00 -0.6609193E-05  0.0000000E+00 -0.8599919E-01
  0.1163265E+01  0.0000000E+00  0.1836735E+00 -0.8275087E-05  0.0000000E+00 -0.8600213E-01
  0.1204082E+01  0.0000000E+00  0.1836735E+00 -0.9806414E-05  0.0000000E+00 -0.8600569E-01
  0.1244898E+01  0.0000000E+00  0.1836735E+00 -0.1117837E-04  0.0000000E+00 -0.8600983E-01
  0.1285714E+01  0.0000000E+00  0.1836735E+00 -0.1236731E-04  0.0000000E+00 -0.8601447E-01
  0.1326531E+01  0.0000000E+00  0.1836735E+00 -0.1335405E-04  0.0000000E+00 -0.8601955E-01
  0.1367347E+01  0.0000000E+00  0.1836735E+00 -0.1412373E-04  0.0000000E+00 -0.8602496E-01
  0.1408163E+01  0.0000000E+00  0.1836735E+00 -0.1466528E-04  0.0000000E+00 -0.8603064E-01
  0.1448980E+01  0.0000000E+00  0.1836735E+00 -0.1497162E-04  0.0000000E+00 -0.8603648E-01
  0.1489796E+01  0.0000000E+00  0.1836735E+00 -0.1503990E-04  0.0000000E+00 -0.8604239E-01
  0.1530612E+01  0.0000000E+00  0.1836735E+00 -0.1487131E-04  0.0000000E+00 -0.8604828E-01
  0.1571429E+01  0.0000000E+00  0.1836735E+00 -0.1447084E-04  0.0000000E+00 -0.8605405E-01
  0.1612245E+01  0.0000000E+00  0.1836735E+00 -0.1384693E-04  0.0000000E+00 -0.8605962E-01
  0.1653061E+01  0.0000000E+00  0.1836735E+00 -0.1301125E-04  0.0000000E+00 -0.8606490E-01
  0.1693878E+01  0.0000000E+00  0.1836735E+00 -0.1197836E-04  0.0000000E+00 -0.8606981E-01
  0.1734694E+01  0.0000000E+00  0.1836735E+00 -0.1076546E-04  0.0000000E+00 -0.8607428E-01
  0.1775510E+01  0.0000000E+00  0.1836735E+00 -0.9392040E-05  0.0000000E+00 -0.8607824E-01
  0.1816326E+01  0.0000000E+00  0.1836735E+00 -0.7879561E-05  0.0000000E+00 -0.8608163E-01
  0.1857143E+01  0.0000000E+00  0.1836735E+00 -0.6251075E-05  0.0000000E+00 -0.8608440E-01
  0.1897959E+01  0.0000000E+00  0.1836735E+00 -0.4530928E-05  0.0000000E+00 -0.8608652E-01
  0.1938776E+01  0.0000000E+00  0.1836735E+00 -0.2744896E-05  0.0000000E+00 -0.8608794E-01
  0.1989796E+01  0.0000000E+00  0.1836735E+00 -0.9198673E-06  0.0000000E+00 -0.8608866E-01
  0.2040816E-01  0.0000000E+00  0.2244898E+00  0.1009451E-05  0.0000000E+00 -0.8607880E-01
  0.6122449E-01  0.0000000E+00  0.2244898E+00  0.3014529E-05  0.0000000E+00 -0.8607808E-01
  0.1020408E+00  0.0000000E+00  0.2244898E+00  0.4973901E-05  0.0000000E+00 -0.8607667E-01
  0.1428571E+00  0.0000000E+00  0.2244898E+00  0.6855616E-05  0.0000000E+00 -0.8607458E-01
  0.1836735E+00  0.0000000E+00  0.2244898E+00  0.8628782E-05  0.0000000E+00 -0.8607184E-01
  0.2244898E+00  0.0000000E+00  0.2244898E+00  0.1026473E-04  0.0000000E+00 -0.8606849E-01
  0.2653061E+00  0.0000000E+00  0.2244898E+00  0.1173754E-04  0.0000000E+00 -0.8606459E-01
  0.3061225E+00  0.0000000E+00  0.2244898E+00  0.1302160E-04  0.0000000E+00 -0.8606020E-01
  0.3469388E+00  0.0000000E+00  0.2244898E+00  0.1409436E-04  0.0000000E+00 -0.8605539E-01
  0.3877551E+00  0.0000000E+00  0.2244898E+00  0.1493638E-04  0.0000000E+00 -0.8605024E-01
  0.4285714E+00  0.0000000E+00  0.2244898E+00  0.1553125E-04  0.0000000E+00 -0.8604483E-01
  0.4693878E+00  0.0000000E+00  0.2244898E+00  0.1586601E-04  0.0000000E+00 -0.8603924E-01
  0.5102041E+00  0.0000000E+00  0.2244898E+00  0.1593175E-04  0.0000000E+00 -0.8603358E-01
  0.5510204E+00  0.0000000E+00  0.2244898E+00  0.1572391E-04  0.0000000E+00 -0.8602794E-01
  0.5918368E+00  0.0000000E+00  0.2244898E+00  0.1524250E-04  0.0000000E+00 -0.8602242E-01
  0.6326531E+00  0.0000000E+00  0.2244898E+00  0.1449226E-04  0.0000000E+00 -0.8601711E-01
  0.6734694E+00  0.0000000E+00  0.2244898E+00  0.1348275E-04  0.0000000E+00 -0.8601212E-01
  0.7142857E+00  0.0000000E+00  0.2244898E+00  0.1222838E-04  0.0000000E+00 -0.8600752E-01
  0.7551020E+00  0.0000000E+00  0.2244898E+00  0.1074842E-04  0.0000000E+00 -0.8600340E-01
  0.7959183E+00  0.0000000E+00  0.2244898E+00  0.9066686E-05  0.0000000E+00 -0.8599985E-01
  0.8367347E+00  0.0000000E+00  0.2244898E+00  0.7211189E-05  0.0000000E+00 -0.8599692E-01
  0.8775510E+00  0.0000000E+00  0.2244898E+00  0.5213568E-05  0.0000000E+00 -0.8599468E-01
  0.9183673E+00  0.0000000E+00  0.2244898E+00  0.3109172E-05  0.0000000E+00 -0.8599318E-01
  0.9591837E+00  0.0000000E+00  0.2244898E+00  0.9351862E-06  0.0000000E+00 -0.8599243E-01
  0.1000000E+01  0.0000000E+00  0.2244898E+00 -0.1269937E-05  0.0000000E+00 -0.8599247E-01
  0.1040816E+01  0.0000000E+00  0.2244898E+00 -0.3466088E-05  0.0000000E+00 -0.8599329E-01
  0.1081633E+01  0.0000000E+00  0.2244898E+00 -0.5614135E-05  0.0000000E+00 -0.8599489E-01
  0.1122449E+01  0.0000000E+00  0.2244898E+00 -0.7676520E-05  0.0000000E+00 -0.8599724E-01
  0.1163265E+01  0.0000000E+00  0.2244898E+00 -0.9615623E-05  0.0000000E+00 -0.8600030E-01
  0.1204082E+01  0.0000000E+00  0.2244898E+00 -0.1139743E-04  0.0000000E+00 -0.8600403E-01
  0.1244898E+01  0.0000000E+00  0.2244898E+00 -0.1299284E-04  0.0000000E+00 -0.8600835E-01
  0.1285714E+01  0.0000000E+00  0.2244898E+00 -0.1437449E-04  0.0000000E+00 -0.8601321E-01
  0.1326531E+01  0.0000000E+00  0.2244898E+00 -0.1552013E-04  0.0000000E+00 -0.8601851E-01
  0.1367347E+01  0.0000000E+00  0.2244898E+00 -0.1641256E-04  0.0000000E+00 -0.8602417E-01
  0.1408163E+01  0.0000000E+00  0.2244898E+00 -0.1703910E-04  0.0000000E+00 -0.8603010E-01
  0.1448980E+01  0.0000000E+00  0.2244898E+00 -0.1739181E-04  0.0000000E+00 -0.8603619E-01
  0.1489796E+01  0.0000000E+00  0.2244898E+00 -0.1746761E-04  0.0000000E+00 -0.8604236E-01
  0.1530612E+01  0.0000000E+00  0.2244898E+00 -0.1726817E-04  0.0000000E+00 -0.8604851E-01
  0.1571429E+01  0.0000000E+00  0.2244898E+00 -0.1679955E-04  0.0000000E+00 -0.8605453E-01
  0.1612245E+01  0.0000000E+00  0.2244898E+00 -0.1607181E-04  0.0000000E+00 -0.8606034E-01
  0.1653061E+01  0.0000000E+00  0.2244898E+00 -0.1509872E-04  0.0000000E+00 -0.8606584E-01
  0.1693878E+01  0.0000000E+00  0.2244898E+00 -0.1389739E-04  0.0000000E+00 -0.8607095E-01
  0.1734694E+01  0.0000000E+00  0.2244898E+00 -0.1248790E-04  0.0000000E+00 -0.8607560E-01
  0.1775510E+01  0.0000000E+00  0.2244898E+00 -0.1089296E-04  0.0000000E+00 -0.8607972E-01
  0.1816326E+01  0.0000000E+00  0.2244898E+00 -0.9137480E-05  0.0000000E+00 -0.8608325E-01
  0.1857143E+01  0.0000000E+00  0.2244898E+00 -0.7248183E-05  0.0000000E+00 -0.8608614E-01
  0.1897959E+01  0.0000000E+00  0.2244898E+00 -0.5253171E-05  0.0000000E+00 -0.8608834E-01
  0.1938776E+01  0.0000000E+00  0.2244898E+00 -0.3182216E-05  0.0000000E+00 -0.8608982E-01
  0.1989796E+01  0.0000000E+00  0.2244898E+00 -0.1066253E-05  0.0000000E+00 -0.8609057E-01
  0.2040816E-01  0.0000000E+00  0.2653061E+00  0.1144701E-05  0.0000000E+00 -0.8608085E-01
  0.6122449E-01  0.0000000E+00  0.2653061E+00  0.3418251E-05  0.0000000E+00 -0.8608010E-01
  0.1020408E+00  0.0000000E+00  0.2653061E+00  0.5640198E-05  0.0000000E+00 -0.8607862E-01
  0.1428571E+00  0.0000000E+00  0.2653061E+00  0.7774650E-05  0.0000000E+00 -0.8607643E-01
  0.1836735E+00  0.0000000E+00  0.2653061E+00  0.9786916E-05  0.0000000E+00 -0.8607356E-01
  0.2244898E+00  0.0000000E+00  0.2653061E+00  0.1164460E-04  0.0000000E+00 -0.8607005E-01
  0.2653061E+00  0.0000000E+00  0.2653061E+00  0.1331821E-04  0.0000000E+00 -0.8606596E-01
  0.3061225E+00  0.0000000E+00  0.2653061E+00  0.1477880E-04  0.0000000E+00 -0.8606136E-01
  0.3469388E+00  0.0000000E+00  0.2653061E+00  0.1600066E-04  0.0000000E+00 -0.8605631E-01
  0.3877551E+00  0.0000000E+00  0.2653061E+00  0.1696156E-04  0.0000000E+00 -0.8605090E-01
  0.4285714E+00  0.0000000E+00  0.2653061E+00  0.1764263E-04  0.0000000E+00 -0.8604522E-01
  0.4693878E+00  0.0000000E+00  0.2653061E+00  0.1802888E-04  0.0000000E+00 -0.8603935E-01
  0.5102041E+00  0.0000000E+00  0.2653061E+00  0.1810987E-04  0.0000000E+00 -0.8603340E-01
  0.5510204E+00  0.0000000E+00  0.2653061E+00  0.1788007E-04  0.0000000E+00 -0.8602747E-01
  0.5918368E+00  0.0000000E+00  0.2653061E+00  0.1733913E-04  0.0000000E+00 -0.8602166E-01
  0.6326531E+00  0.0000000E+00  0.2653061E+00  0.1649210E-04  0.0000000E+00 -0.8601606E-01
  0.6734694E+00  0.0000000E+00  0.2653061E+00  0.1534953E-04  0.0000000E+00 -0.8601080E-01
  0.7142857E+00  0.0000000E+00  0.2653061E+00  0.1392762E-04  0.0000000E+00 -0.8600594E-01
  0.7551020E+00  0.0000000E+00  0.2653061E+00  0.1224810E-04  0.0000000E+00 -0.8600160E-01
  0.7959183E+00  0.0000000E+00  0.2653061E+00  0.1033798E-04  0.0000000E+00 -0.8599784E-01
  0.8367347E+00  0.0000000E+00  0.2653061E+00  0.8229152E-05  0.0000000E+00 -0.8599475E-01
  0.8775510E+00  0.0000000E+00  0.2653061E+00  0.5957670E-05  0.0000000E+00 -0.8599238E-01
  0.9183673E+00  0.0000000E+00  0.2653061E+00  0.3563925E-05  0.0000000E+00 -0.8599078E-01
  0.9591837E+00  0.0000000E+00  0.2653061E+00  0.1090453E-05  0.0000000E+00 -0.8598998E-01
  0.1000000E+01  0.0000000E+00  0.2653061E+00 -0.1418730E-05  0.0000000E+00 -0.8599000E-01
  0.1040816E+01  0.0000000E+00  0.2653061E+00 -0.3917699E-05  0.0000000E+00 -0.8599086E-01
  0.1081633E+01  0.0000000E+00  0.2653061E+00 -0.6361618E-05  0.0000000E+00 -0.8599253E-01
  0.1122449E+01  0.0000000E+00  0.2653061E+00 -0.8707403E-05  0.0000000E+00 -0.8599499E-01
  0.1163265E+01  0.0000000E+00  0.2653061E+00 -0.1091222E-04  0.0000000E+00 -0.8599820E-01
  0.1204082E+01  0.0000000E+00  0.2653061E+00 -0.1293723E-04  0.0000000E+00 -0.8600211E-01
  0.1244898E+01  0.0000000E+00  0.2653061E+00 -0.1474914E-04  0.0000000E+00 -0.8600665E-01
  0.1285714E+01  0.0000000E+00  0.2653061E+00 -0.1631695E-04  0.0000000E+00 -0.8601175E-01
  0.1326531E+01  0.0000000E+00  0.2653061E+00 -0.1761550E-04  0.0000000E+00 -0.8601731E-01