title = "dataset feddes"
variables = "x", "y", "z", "vx", "vy", "vz"
zone t = "velocities, solution time =  3.800E+01 days        " i =   49, j =   49, k =    1,  f=point
  0.2040816E-01  0.0000000E+00  0.2040816E-01  0.3812265E-06  0.0000000E+00 -0.8549065E-01
  0.6122449E-01  0.0000000E+00  0.2040816E-01  0.1137490E-05  0.0000000E+00 -0.8548893E-01
  0.1020408E+00  0.0000000E+00  0.2040816E-01  0.1876482E-05  0.0000000E+00 -0.8548550E-01
  0.1428571E+00  0.0000000E+00  0.2040816E-01  0.2584121E-05  0.0000000E+00 -0.8548044E-01
  0.1836735E+00  0.0000000E+00  0.2040816E-01  0.3247801E-05  0.0000000E+00 -0.8547381E-01
  0.2244898E+00  0.0000000E+00  0.2040816E-01  0.3858923E-05  0.0000000E+00 -0.8546574E-01
  0.2653061E+00  0.0000000E+00  0.2040816E-01  0.4405701E-05  0.0000000E+00 -0.8545635E-01
  0.3061225E+00  0.0000000E+00  0.2040816E-01  0.4876759E-05  0.0000000E+00 -0.8544580E-01
  0.3469388E+00  0.0000000E+00  0.2040816E-01  0.5264804E-05  0.0000000E+00 -0.8543428E-01
  0.3877551E+00  0.0000000E+00  0.2040816E-01  0.5562845E-05  0.0000000E+00 -0.8542198E-01
  0.4285714E+00  0.0000000E+00  0.2040816E-01  0.5764212E-05  0.0000000E+00 -0.8540911E-01
  0.4693878E+00  0.0000000E+00  0.2040816E-01  0.5863908E-05  0.0000000E+00 -0.8539590E-01
  0.5102041E+00  0.0000000E+00  0.2040816E-01  0.5858974E-05  0.0000000E+00 -0.8538258E-01
  0.5510204E+00  0.0000000E+00  0.2040816E-01  0.5748284E-05  0.0000000E+00 -0.8536939E-01
  0.5918368E+00  0.0000000E+00  0.2040816E-01  0.5532447E-05  0.0000000E+00 -0.8535658E-01
  0.6326531E+00  0.0000000E+00  0.2040816E-01  0.5213887E-05  0.0000000E+00 -0.8534437E-01
  0.6734694E+00  0.0000000E+00  0.2040816E-01  0.4796934E-05  0.0000000E+00 -0.8533300E-01
  0.7142857E+00  0.0000000E+00  0.2040816E-01  0.4287830E-05  0.0000000E+00 -0.8532268E-01
  0.7551020E+00  0.0000000E+00  0.2040816E-01  0.3694648E-05  0.0000000E+00 -0.8531361E-01
  0.7959183E+00  0.0000000E+00  0.2040816E-01  0.3027172E-05  0.0000000E+00 -0.8530598E-01
  0.8367347E+00  0.0000000E+00  0.2040816E-01  0.2296728E-05  0.0000000E+00 -0.8529993E-01
  0.8775510E+00  0.0000000E+00  0.2040816E-01  0.1515976E-05  0.0000000E+00 -0.8529560E-01
  0.9183673E+00  0.0000000E+00  0.2040816E-01  0.6985018E-06  0.0000000E+00 -0.8529308E-01
  0.9591837E+00  0.0000000E+00  0.2040816E-01 -0.1410062E-06  0.0000000E+00 -0.8529245E-01
  0.1000000E+01  0.0000000E+00  0.2040816E-01 -0.9874363E-06  0.0000000E+00 -0.8529373E-01
  0.1040816E+01  0.0000000E+00  0.2040816E-01 -0.1826980E-05  0.0000000E+00 -0.8529693E-01
  0.1081633E+01  0.0000000E+00  0.2040816E-01 -0.2643626E-05  0.0000000E+00 -0.8530201E-01
  0.1122449E+01  0.0000000E+00  0.2040816E-01 -0.3421896E-05  0.0000000E+00 -0.8530890E-01
  0.1163265E+01  0.0000000E+00  0.2040816E-01 -0.4150579E-05  0.0000000E+00 -0.8531750E-01
  0.1204082E+01  0.0000000E+00  0.2040816E-01 -0.4816577E-05  0.0000000E+00 -0.8532768E-01
  0.1244898E+01  0.0000000E+00  0.2040816E-01 -0.5407632E-05  0.0000000E+00 -0.8533930E-01
  0.1285714E+01  0.0000000E+00  0.2040816E-01 -0.5913207E-05  0.0000000E+00 -0.8535216E-01
  0.1326531E+01  0.0000000E+00  0.2040816E-01 -0.6327175E-05  0.0000000E+00 -0.8536606E-01
  0.1367347E+01  0.0000000E+00  0.2040816E-01 -0.6643543E-05  0.0000000E+00 -0.8538080E-01
  0.1408163E+01  0.0000000E+00  0.2040816E-01 -0.6857071E-05  0.0000000E+00 -0.8539613E-01
  0.1448980E+01  0.0000000E+00  0.2040816E-01 -0.6964836E-05  0.0000000E+00 -0.8541184E-01
  0.1489796E+01  0.0000000E+00  0.2040816E-01 -0.6966275E-05  0.0000000E+00 -0.8542766E-01
  0.1530612E+01  0.0000000E+00  0.2040816E-01 -0.6862597E-05  0.0000000E+00 -0.8544338E-01
  0.1571429E+01  0.0000000E+00  0.2040816E-01 -0.6656436E-05  0.0000000E+00 -0.8545874E-01
  0.1612245E+01  0.0000000E+00  0.2040816E-01 -0.6351806E-05  0.0000000E+00 -0.8547352E-01
  0.1653061E+01  0.0000000E+00  0.2040816E-01 -0.5954121E-05  0.0000000E+00 -0.8548750E-01
  0.1693878E+01  0.0000000E+00  0.2040816E-01 -0.5470093E-05  0.0000000E+00 -0.8550048E-01
  0.1734694E+01  0.0000000E+00  0.2040816E-01 -0.4907520E-05  0.0000000E+00 -0.8551227E-01
  0.1775510E+01  0.0000000E+00  0.2040816E-01 -0.4275075E-05  0.0000000E+00 -0.8552270E-01
  0.1816326E+01  0.0000000E+00  0.2040816E-01 -0.3582205E-05  0.0000000E+00 -0.8553163E-01
  0.1857143E+01  0.0000000E+00  0.2040816E-01 -0.2839069E-05  0.0000000E+00 -0.8553893E-01
  0.1897959E+01  0.0000000E+00  0.2040816E-01 -0.2056366E-05  0.0000000E+00 -0.8554449E-01
  0.1938776E+01  0.0000000E+00  0.2040816E-01 -0.1245151E-05  0.0000000E+00 -0.8554824E-01
  0.1989796E+01  0.0000000E+00  0.2040816E-01 -0.4167130E-06  0.0000000E+00 -0.8555013E-01
  0.2040816E-01  0.0000000E+00  0.6122449E-01  0.1045684E-05  0.0000000E+00 -0.8549217E-01
  0.6122449E-01  0.0000000E+00  0.6122449E-01  0.3119321E-05  0.0000000E+00 -0.8549042E-01
  0.1020408E+00  0.0000000E+00  0.6122449E-01  0.5144259E-05  0.0000000E+00 -0.8548694E-01
  0.1428571E+00  0.0000000E+00  0.6122449E-01  0.7084777E-05  0.0000000E+00 -0.8548180E-01
  0.1836735E+00  0.0000000E+00  0.6122449E-01  0.8905698E-05  0.0000000E+00 -0.8547508E-01
  0.2244898E+00  0.0000000E+00  0.6122449E-01  0.1058109E-04  0.0000000E+00 -0.8546688E-01
  0.2653061E+00  0.0000000E+00  0.6122449E-01  0.1208025E-04  0.0000000E+00 -0.8545735E-01
  0.3061225E+00  0.0000000E+00  0.6122449E-01  0.1337296E-04  0.0000000E+00 -0.8544665E-01
  0.3469388E+00  0.0000000E+00  0.6122449E-01  0.1443820E-04  0.0000000E+00 -0.8543495E-01
  0.3877551E+00  0.0000000E+00  0.6122449E-01  0.1525642E-04  0.0000000E+00 -0.8542246E-01
  0.4285714E+00  0.0000000E+00  0.6122449E-01  0.1580958E-04  0.0000000E+00 -0.8540940E-01
  0.4693878E+00  0.0000000E+00  0.6122449E-01  0.1608413E-04  0.0000000E+00 -0.8539598E-01
  0.5102041E+00  0.0000000E+00  0.6122449E-01  0.1607187E-04  0.0000000E+00 -0.8538245E-01
  0.5510204E+00  0.0000000E+00  0.6122449E-01  0.1576957E-04  0.0000000E+00 -0.8536906E-01
  0.5918368E+00  0.0000000E+00  0.6122449E-01  0.1517881E-04  0.0000000E+00 -0.8535603E-01
  0.6326531E+00  0.0000000E+00  0.6122449E-01  0.1430619E-04  0.0000000E+00 -0.8534362E-01
  0.6734694E+00  0.0000000E+00  0.6122449E-01  0.1316356E-04  0.0000000E+00 -0.8533206E-01
  0.7142857E+00  0.0000000E+00  0.6122449E-01  0.1176802E-04  0.0000000E+00 -0.8532157E-01
  0.7551020E+00  0.0000000E+00  0.6122449E-01  0.1014167E-04  0.0000000E+00 -0.8531234E-01
  0.7959183E+00  0.0000000E+00  0.6122449E-01  0.8311349E-05  0.0000000E+00 -0.8530457E-01
  0.8367347E+00  0.0000000E+00  0.6122449E-01  0.6308150E-05  0.0000000E+00 -0.8529841E-01
  0.8775510E+00  0.0000000E+00  0.6122449E-01  0.4166792E-05  0.0000000E+00 -0.8529399E-01
  0.9183673E+00  0.0000000E+00  0.6122449E-01  0.1924901E-05  0.0000000E+00 -0.8529141E-01
  0.9591837E+00  0.0000000E+00  0.6122449E-01 -0.3782736E-06  0.0000000E+00 -0.8529075E-01
  0.1000000E+01  0.0000000E+00  0.6122449E-01 -0.2700312E-05  0.0000000E+00 -0.8529203E-01
  0.1040816E+01  0.0000000E+00  0.6122449E-01 -0.5001980E-05  0.0000000E+00 -0.8529526E-01
  0.1081633E+01  0.0000000E+00  0.6122449E-01 -0.7241968E-05  0.0000000E+00 -0.8530040E-01
  0.1122449E+01  0.0000000E+00  0.6122449E-01 -0.9377841E-05  0.0000000E+00 -0.8530738E-01
  0.1163265E+01  0.0000000E+00  0.6122449E-01 -0.1137585E-04  0.0000000E+00 -0.8531609E-01
  0.1204082E+01  0.0000000E+00  0.6122449E-01 -0.1320079E-04  0.0000000E+00 -0.8532642E-01
  0.1244898E+01  0.0000000E+00  0.6122449E-01 -0.1482119E-04  0.0000000E+00 -0.8533819E-01
  0.1285714E+01  0.0000000E+00  0.6122449E-01 -0.1620797E-04  0.0000000E+00 -0.8535123E-01
  0.1326531E+01  0.0000000E+00  0.6122449E-01 -0.1734273E-04  0.0000000E+00 -0.8536532E-01
  0.1367347E+01  0.0000000E+00  0.6122449E-01 -0.1820906E-04  0.0000000E+00 -0.8538026E-01
  0.1408163E+01  0.0000000E+00  0.6122449E-01 -0.1879333E-04  0.0000000E+00 -0.8539580E-01
  0.1448980E+01  0.0000000E+00  0.6122449E-01 -0.1908785E-04  0.0000000E+00 -0.8541172E-01
  0.1489796E+01  0.0000000E+00  0.6122449E-01 -0.1909099E-04  0.0000000E+00 -0.8542776E-01
  0.1530612E+01  0.0000000E+00  0.6122449E-01 -0.1880598E-04  0.0000000E+00 -0.8544368E-01
  0.1571429E+01  0.0000000E+00  0.6122449E-01 -0.1824011E-04  0.0000000E+00 -0.8545924E-01
  0.1612245E+01  0.0000000E+00  0.6122449E-01 -0.1740450E-04  0.0000000E+00 -0.8547421E-01
  0.1653061E+01  0.0000000E+00  0.6122449E-01 -0.1631401E-04  0.0000000E+00 -0.8548837E-01
  0.1693878E+01  0.0000000E+00  0.6122449E-01 -0.1498706E-04  0.0000000E+00 -0.8550152E-01
  0.1734694E+01  0.0000000E+00  0.6122449E-01 -0.1344511E-04  0.0000000E+00 -0.8551346E-01
  0.1775510E+01  0.0000000E+00  0.6122449E-01 -0.1171199E-04  0.0000000E+00 -0.8552402E-01
  0.1816326E+01  0.0000000E+00  0.6122449E-01 -0.9813535E-05  0.0000000E+00 -0.8553306E-01
  0.1857143E+01  0.0000000E+00  0.6122449E-01 -0.7777462E-05  0.0000000E+00 -0.8554045E-01
  0.1897959E+01  0.0000000E+00  0.6122449E-01 -0.5633091E-05  0.0000000E+00 -0.8554608E-01
  0.1938776E+01  0.0000000E+00  0.6122449E-01 -0.3410772E-05  0.0000000E+00 -0.8554987E-01
  0.1989796E+01  0.0000000E+00  0.6122449E-01 -0.1141705E-05  0.0000000E+00 -0.8555179E-01
  0.2040816E-01  0.0000000E+00  0.1020408E+00  0.1571136E-05  0.0000000E+00 -0.8549479E-01
  0.6122449E-01  0.0000000E+00  0.1020408E+00  0.4687532E-05  0.0000000E+00 -0.8549300E-01
  0.1020408E+00  0.0000000E+00  0.1020408E+00  0.7728962E-05  0.0000000E+00 -0.8548944E-01
  0.1428571E+00  0.0000000E+00  0.1020408E+00  0.1064501E-04  0.0000000E+00 -0.8548417E-01
  0.1836735E+00  0.0000000E+00  0.1020408E+00  0.1338315E-04  0.0000000E+00 -0.8547727E-01
  0.2244898E+00  0.0000000E+00  0.1020408E+00  0.1590118E-04  0.0000000E+00 -0.8546887E-01
  0.2653061E+00  0.0000000E+00  0.1020408E+00  0.1815483E-04  0.0000000E+00 -0.8545910E-01
  0.3061225E+00  0.0000000E+00  0.1020408E+00  0.2010026E-04  0.0000000E+00 -0.8544813E-01
  0.3469388E+00  0.0000000E+00  0.1020408E+00  0.2170435E-04  0.0000000E+00 -0.8543613E-01
  0.3877551E+00  0.0000000E+00  0.1020408E+00  0.2293709E-04  0.0000000E+00 -0.8542331E-01
  0.4285714E+00  0.0000000E+00  0.1020408E+00  0.2377171E-04  0.0000000E+00 -0.8540990E-01
  0.4693878E+00  0.0000000E+00  0.1020408E+00  0.2418799E-04  0.0000000E+00 -0.8539612E-01
  0.5102041E+00  0.0000000E+00  0.1020408E+00  0.2417338E-04  0.0000000E+00 -0.8538223E-01
  0.5510204E+00  0.0000000E+00  0.1020408E+00  0.2372269E-04  0.0000000E+00 -0.8536846E-01
  0.5918368E+00  0.0000000E+00  0.1020408E+00  0.2283807E-04  0.0000000E+00 -0.8535508E-01
  0.6326531E+00  0.0000000E+00  0.1020408E+00  0.2152933E-04  0.0000000E+00 -0.8534232E-01
  0.6734694E+00  0.0000000E+00  0.1020408E+00  0.1981415E-04  0.0000000E+00 -0.8533042E-01
  0.7142857E+00  0.0000000E+00  0.1020408E+00  0.1771813E-04  0.0000000E+00 -0.8531962E-01
  0.7551020E+00  0.0000000E+00  0.1020408E+00  0.1527445E-04  0.0000000E+00 -0.8531012E-01
  0.7959183E+00  0.0000000E+00  0.1020408E+00  0.1252347E-04  0.0000000E+00 -0.8530210E-01
  0.8367347E+00  0.0000000E+00  0.1020408E+00  0.9512018E-05  0.0000000E+00 -0.8529574E-01
  0.8775510E+00  0.0000000E+00  0.1020408E+00  0.6292029E-05  0.0000000E+00 -0.8529117E-01
  0.9183673E+00  0.0000000E+00  0.1020408E+00  0.2921066E-05  0.0000000E+00 -0.8528850E-01
  0.9591837E+00  0.0000000E+00  0.1020408E+00 -0.5426113E-06  0.0000000E+00 -0.8528778E-01
  0.1000000E+01  0.0000000E+00  0.1020408E+00 -0.4035576E-05  0.0000000E+00 -0.8528907E-01
  0.1040816E+01  0.0000000E+00  0.1020408E+00 -0.7496075E-05  0.0000000E+00 -0.8529235E-01
  0.1081633E+01  0.0000000E+00  0.1020408E+00 -0.1086394E-04  0.0000000E+00 -0.8529759E-01
  0.1122449E+01  0.0000000E+00  0.1020408E+00 -0.1407686E-04  0.0000000E+00 -0.8530472E-01
  0.1163265E+01  0.0000000E+00  0.1020408E+00 -0.1708022E-04  0.0000000E+00 -0.8531364E-01
  0.1204082E+01  0.0000000E+00  0.1020408E+00 -0.1982155E-04  0.0000000E+00 -0.8532420E-01
  0.1244898E+01  0.0000000E+00  0.1020408E+00 -0.2225584E-04  0.0000000E+00 -0.8533625E-01
  0.1285714E+01  0.0000000E+00  0.1020408E+00 -0.2433975E-04  0.0000000E+00 -0.8534960E-01
  0.1326531E+01  0.0000000E+00  0.1020408E+00 -0.2604356E-04  0.0000000E+00 -0.8536403E-01
  0.1367347E+01  0.0000000E+00  0.1020408E+00 -0.2734257E-04  0.0000000E+00 -0.8537931E-01
  0.1408163E+01  0.0000000E+00  0.1020408E+00 -0.2821741E-04  0.0000000E+00 -0.8539522E-01
  0.1448980E+01  0.0000000E+00  0.1020408E+00 -0.2865713E-04  0.0000000E+00 -0.8541151E-01
  0.1489796E+01  0.0000000E+00  0.1020408E+00 -0.2865925E-04  0.0000000E+00 -0.8542791E-01
  0.1530612E+01  0.0000000E+00  0.1020408E+00 -0.2822861E-04  0.0000000E+00 -0.8544419E-01
  0.1571429E+01  0.0000000E+00  0.1020408E+00 -0.2737636E-04  0.0000000E+00 -0.8546011E-01
  0.1612245E+01  0.0000000E+00  0.1020408E+00 -0.2611951E-04  0.0000000E+00 -0.8547541E-01
  0.1653061E+01  0.0000000E+00  0.1020408E+00 -0.2448059E-04  0.0000000E+00 -0.8548988E-01
  0.1693878E+01  0.0000000E+00  0.1020408E+00 -0.2248728E-04  0.0000000E+00 -0.8550332E-01
  0.1734694E+01  0.0000000E+00  0.1020408E+00 -0.2017184E-04  0.0000000E+00 -0.8551551E-01
  0.1775510E+01  0.0000000E+00  0.1020408E+00 -0.1757026E-04  0.0000000E+00 -0.8552631E-01
  0.1816326E+01  0.0000000E+00  0.1020408E+00 -0.1472132E-04  0.0000000E+00 -0.8553554E-01
  0.1857143E+01  0.0000000E+00  0.1020408E+00 -0.1166642E-04  0.0000000E+00 -0.8554308E-01
  0.1897959E+01  0.0000000E+00  0.1020408E+00 -0.8449404E-05  0.0000000E+00 -0.8554883E-01
  0.1938776E+01  0.0000000E+00  0.1020408E+00 -0.5115695E-05  0.0000000E+00 -0.8555271E-01
  0.1989796E+01  0.0000000E+00  0.1020408E+00 -0.1712605E-05  0.0000000E+00 -0.8555466E-01
  0.2040816E-01  0.0000000E+00  0.1428571E+00  0.2031810E-05  0.0000000E+00 -0.8549837E-01
  0.6122449E-01  0.0000000E+00  0.1428571E+00  0.6063617E-05  0.0000000E+00 -0.8549651E-01
  0.1020408E+00  0.0000000E+00  0.1428571E+00  0.9998034E-05  0.0000000E+00 -0.8549283E-01
  0.1428571E+00  0.0000000E+00  0.1428571E+00  0.1377052E-04  0.0000000E+00 -0.8548739E-01
  0.1836735E+00  0.0000000E+00  0.1428571E+00  0.1731476E-04  0.0000000E+00 -0.8548027E-01
  0.2244898E+00  0.0000000E+00  0.1428571E+00  0.2057448E-04  0.0000000E+00 -0.8547159E-01
  0.2653061E+00  0.0000000E+00  0.1428571E+00  0.2349304E-04  0.0000000E+00 -0.8546149E-01
  0.3061225E+00  0.0000000E+00  0.1428571E+00  0.2601481E-04  0.0000000E+00 -0.8545013E-01
  0.3469388E+00  0.0000000E+00  0.1428571E+00  0.2809591E-04  0.0000000E+00 -0.8543772E-01
  0.3877551E+00  0.0000000E+00  0.1428571E+00  0.2969699E-04  0.0000000E+00 -0.8542446E-01
  0.4285714E+00  0.0000000E+00  0.1428571E+00  0.3078349E-04  0.0000000E+00 -0.8541058E-01
  0.4693878E+00  0.0000000E+00  0.1428571E+00  0.3132917E-04  0.0000000E+00 -0.8539631E-01
  0.5102041E+00  0.0000000E+00  0.1428571E+00  0.3131738E-04  0.0000000E+00 -0.8538192E-01
  0.5510204E+00  0.0000000E+00  0.1428571E+00  0.3074096E-04  0.0000000E+00 -0.8536765E-01
  0.5918368E+00  0.0000000E+00  0.1428571E+00  0.2960231E-04  0.0000000E+00 -0.8535377E-01
  0.6326531E+00  0.0000000E+00  0.1428571E+00  0.2791383E-04  0.0000000E+00 -0.8534053E-01
  0.6734694E+00  0.0000000E+00  0.1428571E+00  0.2569819E-04  0.0000000E+00 -0.8532818E-01
  0.7142857E+00  0.0000000E+00  0.1428571E+00  0.2298831E-04  0.0000000E+00 -0.8531695E-01
  0.7551020E+00  0.0000000E+00  0.1428571E+00  0.1982703E-04  0.0000000E+00 -0.8530707E-01
  0.7959183E+00  0.0000000E+00  0.1428571E+00  0.1626663E-04  0.0000000E+00 -0.8529873E-01
  0.8367347E+00  0.0000000E+00  0.1428571E+00  0.1236790E-04  0.0000000E+00 -0.8529210E-01
  0.8775510E+00  0.0000000E+00  0.1428571E+00  0.8197932E-05  0.0000000E+00 -0.8528732E-01
  0.9183673E+00  0.0000000E+00  0.1428571E+00  0.3831674E-05  0.0000000E+00 -0.8528450E-01
  0.9591837E+00  0.0000000E+00  0.1428571E+00 -0.6542771E-06  0.0000000E+00 -0.8528372E-01
  0.1000000E+01  0.0000000E+00  0.1428571E+00 -0.5179515E-05  0.0000000E+00 -0.8528500E-01
  0.1040816E+01  0.0000000E+00  0.1428571E+00 -0.9662365E-05  0.0000000E+00 -0.8528836E-01
  0.1081633E+01  0.0000000E+00  0.1428571E+00 -0.1402335E-04  0.0000000E+00 -0.8529374E-01
  0.1122449E+01  0.0000000E+00  0.1428571E+00 -0.1818421E-04  0.0000000E+00 -0.8530109E-01
  0.1163265E+01  0.0000000E+00  0.1428571E+00 -0.2207198E-04  0.0000000E+00 -0.8531028E-01
  0.1204082E+01  0.0000000E+00  0.1428571E+00 -0.2561939E-04  0.0000000E+00 -0.8532117E-01
  0.1244898E+01  0.0000000E+00  0.1428571E+00 -0.2876792E-04  0.0000000E+00 -0.8533360E-01
  0.1285714E+01  0.0000000E+00  0.1428571E+00 -0.3146237E-04  0.0000000E+00 -0.8534737E-01
  0.1326531E+01  0.0000000E+00  0.1428571E+00 -0.3366345E-04  0.0000000E+00 -0.8536225E-01
  0.1367347E+01  0.0000000E+00  0.1428571E+00 -0.3533934E-04  0.0000000E+00 -0.8537802E-01
  0.1408163E+01  0.0000000E+00  0.1428571E+00 -0.3646579E-04  0.0000000E+00 -0.8539442E-01
  0.1448980E+01  0.0000000E+00  0.1428571E+00 -0.3702928E-04  0.0000000E+00 -0.8541121E-01
  0.1489796E+01  0.0000000E+00  0.1428571E+00 -0.3702693E-04  0.0000000E+00 -0.8542812E-01
  0.1530612E+01  0.0000000E+00  0.1428571E+00 -0.3646516E-04  0.0000000E+00 -0.8544490E-01
  0.1571429E+01  0.0000000E+00  0.1428571E+00 -0.3535874E-04  0.0000000E+00 -0.8546128E-01
  0.1612245E+01  0.0000000E+00  0.1428571E+00 -0.3373022E-04  0.0000000E+00 -0.8547704E-01
  0.1653061E+01  0.0000000E+00  0.1428571E+00 -0.3160919E-04  0.0000000E+00 -0.8549194E-01
  0.1693878E+01  0.0000000E+00  0.1428571E+00 -0.2903155E-04  0.0000000E+00 -0.8550577E-01
  0.1734694E+01  0.0000000E+00  0.1428571E+00 -0.2603893E-04  0.0000000E+00 -0.8551832E-01
  0.1775510E+01  0.0000000E+00  0.1428571E+00 -0.2267796E-04  0.0000000E+00 -0.8552941E-01
  0.1816326E+01  0.0000000E+00  0.1428571E+00 -0.1899900E-04  0.0000000E+00 -0.8553891E-01
  0.1857143E+01  0.0000000E+00  0.1428571E+00 -0.1505537E-04  0.0000000E+00 -0.8554666E-01
  0.1897959E+01  0.0000000E+00  0.1428571E+00 -0.1090330E-04  0.0000000E+00 -0.8555257E-01
  0.1938776E+01  0.0000000E+00  0.1428571E+00 -0.6601072E-05  0.0000000E+00 -0.8555656E-01
  0.1989796E+01  0.0000000E+00  0.1428571E+00 -0.2209825E-05  0.0000000E+00 -0.8555856E-01
  0.2040816E-01  0.0000000E+00  0.1836735E+00  0.2453904E-05  0.0000000E+00 -0.8550279E-01
  0.6122449E-01  0.0000000E+00  0.1836735E+00  0.7323557E-05  0.0000000E+00 -0.8550086E-01
  0.1020408E+00  0.0000000E+00  0.1836735E+00  0.1207614E-04  0.0000000E+00 -0.8549704E-01
  0.1428571E+00  0.0000000E+00  0.1836735E+00  0.1663378E-04  0.0000000E+00 -0.8549138E-01
  0.1836735E+00  0.0000000E+00  0.1836735E+00  0.2091772E-04  0.0000000E+00 -0.8548398E-01
  0.2244898E+00  0.0000000E+00  0.1836735E+00  0.2485922E-04  0.0000000E+00 -0.8547495E-01
  0.2653061E+00  0.0000000E+00  0.1836735E+00  0.2839016E-04  0.0000000E+00 -0.8546444E-01
  0.3061225E+00  0.0000000E+00  0.1836735E+00  0.3144405E-04  0.0000000E+00 -0.8545262E-01
  0.3469388E+00  0.0000000E+00  0.1836735E+00  0.3396710E-04  0.0000000E+00 -0.8543970E-01
  0.3877551E+00  0.0000000E+00  0.1836735E+00  0.3591126E-04  0.0000000E+00 -0.8542589E-01
  0.4285714E+00  0.0000000E+00  0.1836735E+00  0.3723461E-04  0.0000000E+00 -0.8541142E-01
  0.4693878E+00  0.0000000E+00  0.1836735E+00  0.3790511E-04  0.0000000E+00 -0.8539655E-01
  0.5102041E+00  0.0000000E+00  0.1836735E+00  0.3790204E-04  0.0000000E+00 -0.8538153E-01
  0.5510204E+00  0.0000000E+00  0.1836735E+00  0.3721612E-04  0.0000000E+00 -0.8536664E-01
  0.5918368E+00  0.0000000E+00  0.1836735E+00  0.3584968E-04  0.0000000E+00 -0.8535214E-01
  0.6326531E+00  0.0000000E+00  0.1836735E+00  0.3381721E-04  0.0000000E+00 -0.8533830E-01
  0.6734694E+00  0.0000000E+00  0.1836735E+00  0.3114572E-04  0.0000000E+00 -0.8532538E-01
  0.7142857E+00  0.0000000E+00  0.1836735E+00  0.2787468E-04  0.0000000E+00 -0.8531363E-01
  0.7551020E+00  0.0000000E+00  0.1836735E+00  0.2405577E-04  0.0000000E+00 -0.8530328E-01
  0.7959183E+00  0.0000000E+00  0.1836735E+00  0.1975219E-04  0.0000000E+00 -0.8529453E-01
  0.8367347E+00  0.0000000E+00  0.1836735E+00  0.1503746E-04  0.0000000E+00 -0.8528756E-01
  0.8775510E+00  0.0000000E+00  0.1836735E+00  0.9993384E-05  0.0000000E+00 -0.8528252E-01
  0.9183673E+00  0.0000000E+00  0.1836735E+00  0.4710030E-05  0.0000000E+00 -0.8527952E-01
  0.9591837E+00  0.0000000E+00  0.1836735E+00 -0.7181801E-06  0.0000000E+00 -0.8527865E-01
  0.1000000E+01  0.0000000E+00  0.1836735E+00 -0.6194218E-05  0.0000000E+00 -0.8527994E-01
  0.1040816E+01  0.0000000E+00  0.1836735E+00 -0.1161933E-04  0.0000000E+00 -0.8528339E-01
  0.1081633E+01  0.0000000E+00  0.1836735E+00 -0.1689500E-04  0.0000000E+00 -0.8528895E-01
  0.1122449E+01  0.0000000E+00  0.1836735E+00 -0.2192828E-04  0.0000000E+00 -0.8529656E-01
  0.1163265E+01  0.0000000E+00  0.1836735E+00 -0.2662833E-04  0.0000000E+00 -0.8530609E-01
  0.1204082E+01  0.0000000E+00  0.1836735E+00 -0.3091568E-04  0.0000000E+00 -0.8531740E-01
  0.1244898E+01  0.0000000E+00  0.1836735E+00 -0.3471861E-04  0.0000000E+00 -0.8533030E-01
  0.1285714E+01  0.0000000E+00  0.1836735E+00 -0.3797078E-04  0.0000000E+00 -0.8534459E-01
  0.1326531E+01  0.0000000E+00  0.1836735E+00 -0.4062460E-04  0.0000000E+00 -0.8536004E-01
  0.1367347E+01  0.0000000E+00  0.1836735E+00 -0.4264199E-04  0.0000000E+00 -0.8537641E-01
  0.1408163E+01  0.0000000E+00  0.1836735E+00 -0.4399449E-04  0.0000000E+00 -0.8539343E-01
  0.1448980E+01  0.0000000E+00  0.1836735E+00 -0.4466654E-04  0.0000000E+00 -0.8541084E-01
  0.1489796E+01  0.0000000E+00  0.1836735E+00 -0.4465534E-04  0.0000000E+00 -0.8542838E-01
  0.1530612E+01  0.0000000E+00  0.1836735E+00 -0.4396919E-04  0.0000000E+00 -0.8544576E-01
  0.1571429E+01  0.0000000E+00  0.1836735E+00 -0.4262640E-04  0.0000000E+00 -0.8546274E-01
  0.1612245E+01  0.0000000E+00  0.1836735E+00 -0.4065482E-04  0.0000000E+00 -0.8547907E-01
  0.1653061E+01  0.0000000E+00  0.1836735E+00 -0.3809091E-04  0.0000000E+00 -0.8549449E-01
  0.1693878E+01  0.0000000E+00  0.1836735E+00 -0.3497847E-04  0.0000000E+00 -0.8550880E-01
  0.1734694E+01  0.0000000E+00  0.1836735E+00 -0.3136772E-04  0.0000000E+00 -0.8552178E-01
  0.1775510E+01  0.0000000E+00  0.1836735E+00 -0.2731475E-04  0.0000000E+00 -0.8553326E-01
  0.1816326E+01  0.0000000E+00  0.1836735E+00 -0.2288048E-04  0.0000000E+00 -0.8554307E-01
  0.1857143E+01  0.0000000E+00  0.1836735E+00 -0.1812937E-04  0.0000000E+00 -0.8555109E-01
  0.1897959E+01  0.0000000E+00  0.1836735E+00 -0.1312863E-04  0.0000000E+00 -0.8555720E-01
  0.1938776E+01  0.0000000E+00  0.1836735E+00 -0.7948093E-05  0.0000000E+00 -0.8556131E-01
  0.1989796E+01  0.0000000E+00  0.1836735E+00 -0.2660724E-05  0.0000000E+00 -0.8556339E-01
  0.2040816E-01  0.0000000E+00  0.2244898E+00  0.2852194E-05  0.0000000E+00 -0.8550801E-01
  0.6122449E-01  0.0000000E+00  0.2244898E+00  0.8512335E-05  0.0000000E+00 -0.8550600E-01
  0.1020408E+00  0.0000000E+00  0.2244898E+00  0.1403725E-04  0.0000000E+00 -0.8550200E-01
  0.1428571E+00  0.0000000E+00  0.2244898E+00  0.1933685E-04  0.0000000E+00 -0.8549609E-01
  0.1836735E+00  0.0000000E+00  0.2244898E+00  0.2432071E-04  0.0000000E+00 -0.8548835E-01
  0.2244898E+00  0.0000000E+00  0.2244898E+00  0.2890858E-04  0.0000000E+00 -0.8547891E-01
  0.2653061E+00  0.0000000E+00  0.2244898E+00  0.3302148E-04  0.0000000E+00 -0.8546793E-01
  0.3061225E+00  0.0000000E+00  0.2244898E+00  0.3658265E-04  0.0000000E+00 -0.8545557E-01
  0.3469388E+00  0.0000000E+00  0.2244898E+00  0.3952887E-04  0.0000000E+00 -0.8544204E-01
  0.3877551E+00  0.0000000E+00  0.2244898E+00  0.4180364E-04  0.0000000E+00 -0.8542758E-01
  0.4285714E+00  0.0000000E+00  0.2244898E+00  0.4335785E-04  0.0000000E+00 -0.8541242E-01
  0.4693878E+00  0.0000000E+00  0.2244898E+00  0.4415362E-04  0.0000000E+00 -0.8539683E-01
  0.5102041E+00  0.0000000E+00  0.2244898E+00  0.4416605E-04  0.0000000E+00 -0.8538107E-01
  0.5510204E+00  0.0000000E+00  0.2244898E+00  0.4338342E-04  0.0000000E+00 -0.8536544E-01
  0.5918368E+00  0.0000000E+00  0.2244898E+00  0.4180766E-04  0.0000000E+00 -0.8535021E-01
  0.6326531E+00  0.0000000E+00  0.2244898E+00  0.3945493E-04  0.0000000E+00 -0.8533566E-01
  0.6734694E+00  0.0000000E+00  0.2244898E+00  0.3635601E-04  0.0000000E+00 -0.8532207E-01
  0.7142857E+00  0.0000000E+00  0.2244898E+00  0.3255639E-04  0.0000000E+00 -0.8530970E-01
  0.7551020E+00  0.0000000E+00  0.2244898E+00  0.2811603E-04  0.0000000E+00 -0.8529878E-01
  0.7959183E+00  0.0000000E+00  0.2244898E+00  0.2310857E-04  0.0000000E+00 -0.8528954E-01
  0.8367347E+00  0.0000000E+00  0.2244898E+00  0.1761938E-04  0.0000000E+00 -0.8528217E-01
  0.8775510E+00  0.0000000E+00  0.2244898E+00  0.1174473E-04  0.0000000E+00 -0.8527682E-01
  0.9183673E+00  0.0000000E+00  0.2244898E+00  0.5589206E-05  0.0000000E+00 -0.8527362E-01
  0.9591837E+00  0.0000000E+00  0.2244898E+00 -0.7360055E-06  0.0000000E+00 -0.8527264E-01
  0.1000000E+01  0.0000000E+00  0.2244898E+00 -0.7116688E-05  0.0000000E+00 -0.8527394E-01
  0.1040816E+01  0.0000000E+00  0.2244898E+00 -0.1343807E-04  0.0000000E+00 -0.8527749E-01
  0.1081633E+01  0.0000000E+00  0.2244898E+00 -0.1958349E-04  0.0000000E+00 -0.8528327E-01
  0.1122449E+01  0.0000000E+00  0.2244898E+00 -0.2544553E-04  0.0000000E+00 -0.8529119E-01
  0.1163265E+01  0.0000000E+00  0.2244898E+00 -0.3091598E-04  0.0000000E+00 -0.8530113E-01
  0.1204082E+01  0.0000000E+00  0.2244898E+00 -0.3590354E-04  0.0000000E+00 -0.8531293E-01
  0.1244898E+01  0.0000000E+00  0.2244898E+00 -0.4032431E-04  0.0000000E+00 -0.8532639E-01
  0.1285714E+01  0.0000000E+00  0.2244898E+00 -0.4410141E-04  0.0000000E+00 -0.8534131E-01
  0.1326531E+01  0.0000000E+00  0.2244898E+00 -0.4717948E-04  0.0000000E+00 -0.8535743E-01
  0.1367347E+01  0.0000000E+00  0.2244898E+00 -0.4951487E-04  0.0000000E+00 -0.8537450E-01
  0.1408163E+01  0.0000000E+00  0.2244898E+00 -0.5107546E-04  0.0000000E+00 -0.8539226E-01
  0.1448980E+01  0.0000000E+00  0.2244898E+00 -0.5184411E-04  0.0000000E+00 -0.8541041E-01
  0.1489796E+01  0.0000000E+00  0.2244898E+00 -0.5181861E-04  0.0000000E+00 -0.8542868E-01
  0.1530612E+01  0.0000000E+00  0.2244898E+00 -0.5100964E-04  0.0000000E+00 -0.8544679E-01
  0.1571429E+01  0.0000000E+00  0.2244898E+00 -0.4943933E-04  0.0000000E+00 -0.8546447E-01
  0.1612245E+01  0.0000000E+00  0.2244898E+00 -0.4714067E-04  0.0000000E+00 -0.8548145E-01
  0.1653061E+01  0.0000000E+00  0.2244898E+00 -0.4415679E-04  0.0000000E+00 -0.8549749E-01
  0.1693878E+01  0.0000000E+00  0.2244898E+00 -0.4053943E-04  0.0000000E+00 -0.8551236E-01
  0.1734694E+01  0.0000000E+00  0.2244898E+00 -0.3634725E-04  0.0000000E+00 -0.8552585E-01
  0.1775510E+01  0.0000000E+00  0.2244898E+00 -0.3164506E-04  0.0000000E+00 -0.8553778E-01
  0.1816326E+01  0.0000000E+00  0.2244898E+00 -0.2650341E-04  0.0000000E+00 -0.8554797E-01
  0.1857143E+01  0.0000000E+00  0.2244898E+00 -0.2099720E-04  0.0000000E+00 -0.8555629E-01
  0.1897959E+01  0.0000000E+00  0.2244898E+00 -0.1520395E-04  0.0000000E+00 -0.8556263E-01
  0.1938776E+01  0.0000000E+00  0.2244898E+00 -0.9204155E-05  0.0000000E+00 -0.8556691E-01
  0.1989796E+01  0.0000000E+00  0.2244898E+00 -0.3081290E-05  0.0000000E+00 -0.8556906E-01
  0.2040816E-01  0.0000000E+00  0.2653061E+00  0.3236784E-05  0.0000000E+00 -0.8551398E-01
  0.6122449E-01  0.0000000E+00  0.2653061E+00  0.9660503E-05  0.0000000E+00 -0.8551187E-01
  0.1020408E+00  0.0000000E+00  0.2653061E+00  0.1593186E-04  0.0000000E+00 -0.8550769E-01
  0.1428571E+00  0.0000000E+00  0.2653061E+00  0.2194940E-04  0.0000000E+00 -0.8550148E-01
  0.1836735E+00  0.0000000E+00  0.2653061E+00  0.2761163E-04  0.0000000E+00 -0.8549337E-01
  0.2244898E+00  0.0000000E+00  0.2653061E+00  0.3282734E-04  0.0000000E+00 -0.8548346E-01
  0.2653061E+00  0.0000000E+00  0.2653061E+00  0.3750715E-04  0.0000000E+00 -0.8547193E-01
  0.3061225E+00  0.0000000E+00  0.2653061E+00  0.4156432E-04  0.0000000E+00 -0.8545895E-01
  0.3469388E+00  0.0000000E+00  0.2653061E+00  0.4492638E-04  0.0000000E+00 -0.8544473E-01
  0.3877551E+00  0.0000000E+00  0.2653061E+00  0.4752847E-04  0.0000000E+00 -0.8542953E-01
  0.4285714E+00  0.0000000E+00  0.2653061E+00  0.4931415E-04  0.0000000E+00 -0.8541358E-01
  0.4693878E+00  0.0000000E+00  0.2653061E+00  0.5023955E-04  0.0000000E+00 -0.8539716E-01
  0.5102041E+00  0.0000000E+00  0.2653061E+00  0.5027523E-04  0.0000000E+00 -0.8538056E-01
  0.5510204E+00  0.0000000E+00  0.2653061E+00  0.4940674E-04  0.0000000E+00 -0.8536408E-01
  0.5918368E+00  0.0000000E+00  0.2653061E+00  0.4763515E-04  0.0000000E+00 -0.8534800E-01
  0.6326531E+00  0.0000000E+00  0.2653061E+00  0.4497782E-04  0.0000000E+00 -0.8533264E-01
  0.6734694E+00  0.0000000E+00  0.2653061E+00  0.4146891E-04  0.0000000E+00 -0.8531827E-01
  0.7142857E+00  0.0000000E+00  0.2653061E+00  0.3715946E-04  0.0000000E+00 -0.8530518E-01
  0.7551020E+00  0.0000000E+00  0.2653061E+00  0.3211734E-04  0.0000000E+00 -0.8529362E-01
  0.7959183E+00  0.0000000E+00  0.2653061E+00  0.2642639E-04  0.0000000E+00 -0.8528381E-01
  0.8367347E+00  0.0000000E+00  0.2653061E+00  0.2018357E-04  0.0000000E+00 -0.8527598E-01
  0.8775510E+00  0.0000000E+00  0.2653061E+00  0.1349933E-04  0.0000000E+00 -0.8527027E-01
  0.9183673E+00  0.0000000E+00  0.2653061E+00  0.6492899E-05  0.0000000E+00 -0.8526683E-01
  0.9591837E+00  0.0000000E+00  0.2653061E+00 -0.7083279E-06  0.0000000E+00 -0.8526573E-01
  0.1000000E+01  0.0000000E+00  0.2653061E+00 -0.7972533E-05  0.0000000E+00 -0.8526702E-01
  0.1040816E+01  0.0000000E+00  0.2653061E+00 -0.1516826E-04  0.0000000E+00 -0.8527071E-01
  0.1081633E+01  0.0000000E+00  0.2653061E+00 -0.2216244E-04  0.0000000E+00 -0.8527674E-01
  0.1122449E+01  0.0000000E+00  0.2653061E+00 -0.2883135E-04  0.0000000E+00 -0.8528502E-01
  0.1163265E+01  0.0000000E+00  0.2653061E+00 -0.3505138E-04  0.0000000E+00 -0.8529543E-01
  0.1204082E+01  0.0000000E+00  0.2653061E+00 -0.4071820E-04  0.0000000E+00 -0.8530779E-01
  0.1244898E+01  0.0000000E+00  0.2653061E+00 -0.4573640E-04  0.0000000E+00 -0.8532190E-01
  0.1285714E+01  0.0000000E+00  0.2653061E+00 -0.5001912E-04  0.0000000E+00 -0.8533754E-01
  0.1326531E+01  0.0000000E+00  0.2653061E+00 -0.5350364E-04  0.0000000E+00 -0.8535444E-01