title = "dataset feddes"
variables = "x", "y", "z", "vx", "vy", "vz"
zone t = "velocities, solution time =  3.000E+01 days        " i =   49, j =   49, k =    1,  f=point
  0.2040816E-01  0.0000000E+00  0.2040816E-01  0.2829972E-06  0.0000000E+00 -0.8572897E-01
  0.6122449E-01  0.0000000E+00  0.2040816E-01  0.8445991E-06  0.0000000E+00 -0.8572768E-01
  0.1020408E+00  0.0000000E+00  0.2040816E-01  0.1393714E-05  0.0000000E+00 -0.8572514E-01
  0.1428571E+00  0.0000000E+00  0.2040816E-01  0.1920587E-05  0.0000000E+00 -0.8572137E-01
  0.1836735E+00  0.0000000E+00  0.2040816E-01  0.2415678E-05  0.0000000E+00 -0.8571644E-01
  0.2244898E+00  0.0000000E+00  0.2040816E-01  0.2872335E-05  0.0000000E+00 -0.8571043E-01
  0.2653061E+00  0.0000000E+00  0.2040816E-01  0.3282640E-05  0.0000000E+00 -0.8570344E-01
  0.3061225E+00  0.0000000E+00  0.2040816E-01  0.3638585E-05  0.0000000E+00 -0.8569557E-01
  0.3469388E+00  0.0000000E+00  0.2040816E-01  0.3934417E-05  0.0000000E+00 -0.8568696E-01
  0.3877551E+00  0.0000000E+00  0.2040816E-01  0.4164921E-05  0.0000000E+00 -0.8567776E-01
  0.4285714E+00  0.0000000E+00  0.2040816E-01  0.4325349E-05  0.0000000E+00 -0.8566811E-01
  0.4693878E+00  0.0000000E+00  0.2040816E-01  0.4412056E-05  0.0000000E+00 -0.8565818E-01
  0.5102041E+00  0.0000000E+00  0.2040816E-01  0.4422719E-05  0.0000000E+00 -0.8564814E-01
  0.5510204E+00  0.0000000E+00  0.2040816E-01  0.4356289E-05  0.0000000E+00 -0.8563816E-01
  0.5918368E+00  0.0000000E+00  0.2040816E-01  0.4212975E-05  0.0000000E+00 -0.8562842E-01
  0.6326531E+00  0.0000000E+00  0.2040816E-01  0.3994300E-05  0.0000000E+00 -0.8561910E-01
  0.6734694E+00  0.0000000E+00  0.2040816E-01  0.3703150E-05  0.0000000E+00 -0.8561035E-01
  0.7142857E+00  0.0000000E+00  0.2040816E-01  0.3343783E-05  0.0000000E+00 -0.8560234E-01
  0.7551020E+00  0.0000000E+00  0.2040816E-01  0.2921778E-05  0.0000000E+00 -0.8559522E-01
  0.7959183E+00  0.0000000E+00  0.2040816E-01  0.2443959E-05  0.0000000E+00 -0.8558912E-01
  0.8367347E+00  0.0000000E+00  0.2040816E-01  0.1918289E-05  0.0000000E+00 -0.8558416E-01
  0.8775510E+00  0.0000000E+00  0.2040816E-01  0.1353731E-05  0.0000000E+00 -0.8558045E-01
  0.9183673E+00  0.0000000E+00  0.2040816E-01  0.7600866E-06  0.0000000E+00 -0.8557804E-01
  0.9591837E+00  0.0000000E+00  0.2040816E-01  0.1477507E-06  0.0000000E+00 -0.8557701E-01
  0.1000000E+01  0.0000000E+00  0.2040816E-01 -0.4724763E-06  0.0000000E+00 -0.8557738E-01
  0.1040816E+01  0.0000000E+00  0.2040816E-01 -0.1089127E-05  0.0000000E+00 -0.8557916E-01
  0.1081633E+01  0.0000000E+00  0.2040816E-01 -0.1692271E-05  0.0000000E+00 -0.8558232E-01
  0.1122449E+01  0.0000000E+00  0.2040816E-01 -0.2270939E-05  0.0000000E+00 -0.8558682E-01
  0.1163265E+01  0.0000000E+00  0.2040816E-01 -0.2813668E-05  0.0000000E+00 -0.8559260E-01
  0.1204082E+01  0.0000000E+00  0.2040816E-01 -0.3312786E-05  0.0000000E+00 -0.8559956E-01
  0.1244898E+01  0.0000000E+00  0.2040816E-01 -0.3759545E-05  0.0000000E+00 -0.8560760E-01
  0.1285714E+01  0.0000000E+00  0.2040816E-01 -0.4145285E-05  0.0000000E+00 -0.8561658E-01
  0.1326531E+01  0.0000000E+00  0.2040816E-01 -0.4464506E-05  0.0000000E+00 -0.8562637E-01
  0.1367347E+01  0.0000000E+00  0.2040816E-01 -0.4712602E-05  0.0000000E+00 -0.8563680E-01
  0.1408163E+01  0.0000000E+00  0.2040816E-01 -0.4885703E-05  0.0000000E+00 -0.8564770E-01
  0.1448980E+01  0.0000000E+00  0.2040816E-01 -0.4981367E-05  0.0000000E+00 -0.8565892E-01
  0.1489796E+01  0.0000000E+00  0.2040816E-01 -0.4998723E-05  0.0000000E+00 -0.8567026E-01
  0.1530612E+01  0.0000000E+00  0.2040816E-01 -0.4938262E-05  0.0000000E+00 -0.8568155E-01
  0.1571429E+01  0.0000000E+00  0.2040816E-01 -0.4801647E-05  0.0000000E+00 -0.8569262E-01
  0.1612245E+01  0.0000000E+00  0.2040816E-01 -0.4591642E-05  0.0000000E+00 -0.8570330E-01
  0.1653061E+01  0.0000000E+00  0.2040816E-01 -0.4312095E-05  0.0000000E+00 -0.8571342E-01
  0.1693878E+01  0.0000000E+00  0.2040816E-01 -0.3967856E-05  0.0000000E+00 -0.8572283E-01
  0.1734694E+01  0.0000000E+00  0.2040816E-01 -0.3564618E-05  0.0000000E+00 -0.8573139E-01
  0.1775510E+01  0.0000000E+00  0.2040816E-01 -0.3108781E-05  0.0000000E+00 -0.8573898E-01
  0.1816326E+01  0.0000000E+00  0.2040816E-01 -0.2607381E-05  0.0000000E+00 -0.8574548E-01
  0.1857143E+01  0.0000000E+00  0.2040816E-01 -0.2068023E-05  0.0000000E+00 -0.8575079E-01
  0.1897959E+01  0.0000000E+00  0.2040816E-01 -0.1498740E-05  0.0000000E+00 -0.8575484E-01
  0.1938776E+01  0.0000000E+00  0.2040816E-01 -0.9078709E-06  0.0000000E+00 -0.8575758E-01
  0.1989796E+01  0.0000000E+00  0.2040816E-01 -0.3039897E-06  0.0000000E+00 -0.8575896E-01
  0.2040816E-01  0.0000000E+00  0.6122449E-01  0.7760113E-06  0.0000000E+00 -0.8573009E-01
  0.6122449E-01  0.0000000E+00  0.6122449E-01  0.2315768E-05  0.0000000E+00 -0.8572879E-01
  0.1020408E+00  0.0000000E+00  0.6122449E-01  0.3820388E-05  0.0000000E+00 -0.8572621E-01
  0.1428571E+00  0.0000000E+00  0.6122449E-01  0.5264641E-05  0.0000000E+00 -0.8572239E-01
  0.1836735E+00  0.0000000E+00  0.6122449E-01  0.6622536E-05  0.0000000E+00 -0.8571739E-01
  0.2244898E+00  0.0000000E+00  0.6122449E-01  0.7874481E-05  0.0000000E+00 -0.8571129E-01
  0.2653061E+00  0.0000000E+00  0.6122449E-01  0.8999358E-05  0.0000000E+00 -0.8570420E-01
  0.3061225E+00  0.0000000E+00  0.6122449E-01  0.9975797E-05  0.0000000E+00 -0.8569622E-01
  0.3469388E+00  0.0000000E+00  0.6122449E-01  0.1078758E-04  0.0000000E+00 -0.8568748E-01
  0.3877551E+00  0.0000000E+00  0.6122449E-01  0.1142021E-04  0.0000000E+00 -0.8567814E-01
  0.4285714E+00  0.0000000E+00  0.6122449E-01  0.1186077E-04  0.0000000E+00 -0.8566835E-01
  0.4693878E+00  0.0000000E+00  0.6122449E-01  0.1209930E-04  0.0000000E+00 -0.8565827E-01
  0.5102041E+00  0.0000000E+00  0.6122449E-01  0.1212939E-04  0.0000000E+00 -0.8564807E-01
  0.5510204E+00  0.0000000E+00  0.6122449E-01  0.1194809E-04  0.0000000E+00 -0.8563794E-01
  0.5918368E+00  0.0000000E+00  0.6122449E-01  0.1155592E-04  0.0000000E+00 -0.8562805E-01
  0.6326531E+00  0.0000000E+00  0.6122449E-01  0.1095700E-04  0.0000000E+00 -0.8561858E-01
  0.6734694E+00  0.0000000E+00  0.6122449E-01  0.1015924E-04  0.0000000E+00 -0.8560969E-01
  0.7142857E+00  0.0000000E+00  0.6122449E-01  0.9174275E-05  0.0000000E+00 -0.8560155E-01
  0.7551020E+00  0.0000000E+00  0.6122449E-01  0.8017385E-05  0.0000000E+00 -0.8559431E-01
  0.7959183E+00  0.0000000E+00  0.6122449E-01  0.6707277E-05  0.0000000E+00 -0.8558811E-01
  0.8367347E+00  0.0000000E+00  0.6122449E-01  0.5265789E-05  0.0000000E+00 -0.8558306E-01
  0.8775510E+00  0.0000000E+00  0.6122449E-01  0.3717517E-05  0.0000000E+00 -0.8557928E-01
  0.9183673E+00  0.0000000E+00  0.6122449E-01  0.2089337E-05  0.0000000E+00 -0.8557683E-01
  0.9591837E+00  0.0000000E+00  0.6122449E-01  0.4100757E-06  0.0000000E+00 -0.8557577E-01
  0.1000000E+01  0.0000000E+00  0.6122449E-01 -0.1291226E-05  0.0000000E+00 -0.8557613E-01
  0.1040816E+01  0.0000000E+00  0.6122449E-01 -0.2982984E-05  0.0000000E+00 -0.8557793E-01
  0.1081633E+01  0.0000000E+00  0.6122449E-01 -0.4636694E-05  0.0000000E+00 -0.8558113E-01
  0.1122449E+01  0.0000000E+00  0.6122449E-01 -0.6223658E-05  0.0000000E+00 -0.8558569E-01
  0.1163265E+01  0.0000000E+00  0.6122449E-01 -0.7712713E-05  0.0000000E+00 -0.8559155E-01
  0.1204082E+01  0.0000000E+00  0.6122449E-01 -0.9081167E-05  0.0000000E+00 -0.8559861E-01
  0.1244898E+01  0.0000000E+00  0.6122449E-01 -0.1030571E-04  0.0000000E+00 -0.8560676E-01
  0.1285714E+01  0.0000000E+00  0.6122449E-01 -0.1136334E-04  0.0000000E+00 -0.8561587E-01
  0.1326531E+01  0.0000000E+00  0.6122449E-01 -0.1223844E-04  0.0000000E+00 -0.8562579E-01
  0.1367347E+01  0.0000000E+00  0.6122449E-01 -0.1291818E-04  0.0000000E+00 -0.8563636E-01
  0.1408163E+01  0.0000000E+00  0.6122449E-01 -0.1339216E-04  0.0000000E+00 -0.8564743E-01
  0.1448980E+01  0.0000000E+00  0.6122449E-01 -0.1365383E-04  0.0000000E+00 -0.8565880E-01
  0.1489796E+01  0.0000000E+00  0.6122449E-01 -0.1370082E-04  0.0000000E+00 -0.8567029E-01
  0.1530612E+01  0.0000000E+00  0.6122449E-01 -0.1353448E-04  0.0000000E+00 -0.8568174E-01
  0.1571429E+01  0.0000000E+00  0.6122449E-01 -0.1315942E-04  0.0000000E+00 -0.8569296E-01
  0.1612245E+01  0.0000000E+00  0.6122449E-01 -0.1258330E-04  0.0000000E+00 -0.8570378E-01
  0.1653061E+01  0.0000000E+00  0.6122449E-01 -0.1181666E-04  0.0000000E+00 -0.8571404E-01
  0.1693878E+01  0.0000000E+00  0.6122449E-01 -0.1087283E-04  0.0000000E+00 -0.8572357E-01
  0.1734694E+01  0.0000000E+00  0.6122449E-01 -0.9767450E-05  0.0000000E+00 -0.8573224E-01
  0.1775510E+01  0.0000000E+00  0.6122449E-01 -0.8518117E-05  0.0000000E+00 -0.8573993E-01
  0.1816326E+01  0.0000000E+00  0.6122449E-01 -0.7144074E-05  0.0000000E+00 -0.8574651E-01
  0.1857143E+01  0.0000000E+00  0.6122449E-01 -0.5666095E-05  0.0000000E+00 -0.8575189E-01
  0.1897959E+01  0.0000000E+00  0.6122449E-01 -0.4106193E-05  0.0000000E+00 -0.8575600E-01
  0.1938776E+01  0.0000000E+00  0.6122449E-01 -0.2487239E-05  0.0000000E+00 -0.8575877E-01
  0.1989796E+01  0.0000000E+00  0.6122449E-01 -0.8329353E-06  0.0000000E+00 -0.8576016E-01
  0.2040816E-01  0.0000000E+00  0.1020408E+00  0.1165588E-05  0.0000000E+00 -0.8573203E-01
  0.6122449E-01  0.0000000E+00  0.1020408E+00  0.3478886E-05  0.0000000E+00 -0.8573070E-01
  0.1020408E+00  0.0000000E+00  0.1020408E+00  0.5738262E-05  0.0000000E+00 -0.8572806E-01
  0.1428571E+00  0.0000000E+00  0.1020408E+00  0.7907469E-05  0.0000000E+00 -0.8572414E-01
  0.1836735E+00  0.0000000E+00  0.1020408E+00  0.9948313E-05  0.0000000E+00 -0.8571902E-01
  0.2244898E+00  0.0000000E+00  0.1020408E+00  0.1182953E-04  0.0000000E+00 -0.8571278E-01
  0.2653061E+00  0.0000000E+00  0.1020408E+00  0.1352003E-04  0.0000000E+00 -0.8570551E-01
  0.3061225E+00  0.0000000E+00  0.1020408E+00  0.1498859E-04  0.0000000E+00 -0.8569733E-01
  0.3469388E+00  0.0000000E+00  0.1020408E+00  0.1621022E-04  0.0000000E+00 -0.8568838E-01
  0.3877551E+00  0.0000000E+00  0.1020408E+00  0.1716279E-04  0.0000000E+00 -0.8567880E-01
  0.4285714E+00  0.0000000E+00  0.1020408E+00  0.1782697E-04  0.0000000E+00 -0.8566875E-01
  0.4693878E+00  0.0000000E+00  0.1020408E+00  0.1818787E-04  0.0000000E+00 -0.8565841E-01
  0.5102041E+00  0.0000000E+00  0.1020408E+00  0.1823568E-04  0.0000000E+00 -0.8564795E-01
  0.5510204E+00  0.0000000E+00  0.1020408E+00  0.1796578E-04  0.0000000E+00 -0.8563755E-01
  0.5918368E+00  0.0000000E+00  0.1020408E+00  0.1737879E-04  0.0000000E+00 -0.8562740E-01
  0.6326531E+00  0.0000000E+00  0.1020408E+00  0.1648083E-04  0.0000000E+00 -0.8561766E-01
  0.6734694E+00  0.0000000E+00  0.1020408E+00  0.1528364E-04  0.0000000E+00 -0.8560853E-01
  0.7142857E+00  0.0000000E+00  0.1020408E+00  0.1380465E-04  0.0000000E+00 -0.8560016E-01
  0.7551020E+00  0.0000000E+00  0.1020408E+00  0.1206676E-04  0.0000000E+00 -0.8559272E-01
  0.7959183E+00  0.0000000E+00  0.1020408E+00  0.1009806E-04  0.0000000E+00 -0.8558633E-01
  0.8367347E+00  0.0000000E+00  0.1020408E+00  0.7931412E-05  0.0000000E+00 -0.8558114E-01
  0.8775510E+00  0.0000000E+00  0.1020408E+00  0.5603842E-05  0.0000000E+00 -0.8557723E-01
  0.9183673E+00  0.0000000E+00  0.1020408E+00  0.3155652E-05  0.0000000E+00 -0.8557470E-01
  0.9591837E+00  0.0000000E+00  0.1020408E+00  0.6307041E-06  0.0000000E+00 -0.8557359E-01
  0.1000000E+01  0.0000000E+00  0.1020408E+00 -0.1927488E-05  0.0000000E+00 -0.8557395E-01
  0.1040816E+01  0.0000000E+00  0.1020408E+00 -0.4472142E-05  0.0000000E+00 -0.8557577E-01
  0.1081633E+01  0.0000000E+00  0.1020408E+00 -0.6958367E-05  0.0000000E+00 -0.8557904E-01
  0.1122449E+01  0.0000000E+00  0.1020408E+00 -0.9344097E-05  0.0000000E+00 -0.8558371E-01
  0.1163265E+01  0.0000000E+00  0.1020408E+00 -0.1158349E-04  0.0000000E+00 -0.8558970E-01
  0.1204082E+01  0.0000000E+00  0.1020408E+00 -0.1364013E-04  0.0000000E+00 -0.8559693E-01
  0.1244898E+01  0.0000000E+00  0.1020408E+00 -0.1547967E-04  0.0000000E+00 -0.8560528E-01
  0.1285714E+01  0.0000000E+00  0.1020408E+00 -0.1706865E-04  0.0000000E+00 -0.8561461E-01
  0.1326531E+01  0.0000000E+00  0.1020408E+00 -0.1838289E-04  0.0000000E+00 -0.8562478E-01
  0.1367347E+01  0.0000000E+00  0.1020408E+00 -0.1940285E-04  0.0000000E+00 -0.8563561E-01
  0.1408163E+01  0.0000000E+00  0.1020408E+00 -0.2011323E-04  0.0000000E+00 -0.8564693E-01
  0.1448980E+01  0.0000000E+00  0.1020408E+00 -0.2050455E-04  0.0000000E+00 -0.8565858E-01
  0.1489796E+01  0.0000000E+00  0.1020408E+00 -0.2057332E-04  0.0000000E+00 -0.8567035E-01
  0.1530612E+01  0.0000000E+00  0.1020408E+00 -0.2032161E-04  0.0000000E+00 -0.8568206E-01
  0.1571429E+01  0.0000000E+00  0.1020408E+00 -0.1975652E-04  0.0000000E+00 -0.8569354E-01
  0.1612245E+01  0.0000000E+00  0.1020408E+00 -0.1888975E-04  0.0000000E+00 -0.8570461E-01
  0.1653061E+01  0.0000000E+00  0.1020408E+00 -0.1773727E-04  0.0000000E+00 -0.8571510E-01
  0.1693878E+01  0.0000000E+00  0.1020408E+00 -0.1631906E-04  0.0000000E+00 -0.8572485E-01
  0.1734694E+01  0.0000000E+00  0.1020408E+00 -0.1465874E-04  0.0000000E+00 -0.8573372E-01
  0.1775510E+01  0.0000000E+00  0.1020408E+00 -0.1278283E-04  0.0000000E+00 -0.8574157E-01
  0.1816326E+01  0.0000000E+00  0.1020408E+00 -0.1072022E-04  0.0000000E+00 -0.8574830E-01
  0.1857143E+01  0.0000000E+00  0.1020408E+00 -0.8501980E-05  0.0000000E+00 -0.8575380E-01
  0.1897959E+01  0.0000000E+00  0.1020408E+00 -0.6161040E-05  0.0000000E+00 -0.8575799E-01
  0.1938776E+01  0.0000000E+00  0.1020408E+00 -0.3731679E-05  0.0000000E+00 -0.8576082E-01
  0.1989796E+01  0.0000000E+00  0.1020408E+00 -0.1249732E-05  0.0000000E+00 -0.8576225E-01
  0.2040816E-01  0.0000000E+00  0.1428571E+00  0.1506800E-05  0.0000000E+00 -0.8573467E-01
  0.6122449E-01  0.0000000E+00  0.1428571E+00  0.4498106E-05  0.0000000E+00 -0.8573330E-01
  0.1020408E+00  0.0000000E+00  0.1428571E+00  0.7419453E-05  0.0000000E+00 -0.8573057E-01
  0.1428571E+00  0.0000000E+00  0.1428571E+00  0.1022428E-04  0.0000000E+00 -0.8572653E-01
  0.1836735E+00  0.0000000E+00  0.1428571E+00  0.1286442E-04  0.0000000E+00 -0.8572125E-01
  0.2244898E+00  0.0000000E+00  0.1428571E+00  0.1529858E-04  0.0000000E+00 -0.8571480E-01
  0.2653061E+00  0.0000000E+00  0.1428571E+00  0.1748663E-04  0.0000000E+00 -0.8570729E-01
  0.3061225E+00  0.0000000E+00  0.1428571E+00  0.1938887E-04  0.0000000E+00 -0.8569884E-01
  0.3469388E+00  0.0000000E+00  0.1428571E+00  0.2097250E-04  0.0000000E+00 -0.8568959E-01
  0.3877551E+00  0.0000000E+00  0.1428571E+00  0.2220861E-04  0.0000000E+00 -0.8567969E-01
  0.4285714E+00  0.0000000E+00  0.1428571E+00  0.2307215E-04  0.0000000E+00 -0.8566931E-01
  0.4693878E+00  0.0000000E+00  0.1428571E+00  0.2354375E-04  0.0000000E+00 -0.8565861E-01
  0.5102041E+00  0.0000000E+00  0.1428571E+00  0.2361048E-04  0.0000000E+00 -0.8564778E-01
  0.5510204E+00  0.0000000E+00  0.1428571E+00  0.2326605E-04  0.0000000E+00 -0.8563702E-01
  0.5918368E+00  0.0000000E+00  0.1428571E+00  0.2251100E-04  0.0000000E+00 -0.8562650E-01
  0.6326531E+00  0.0000000E+00  0.1428571E+00  0.2135300E-04  0.0000000E+00 -0.8561641E-01
  0.6734694E+00  0.0000000E+00  0.1428571E+00  0.1980708E-04  0.0000000E+00 -0.8560694E-01
  0.7142857E+00  0.0000000E+00  0.1428571E+00  0.1789561E-04  0.0000000E+00 -0.8559826E-01
  0.7551020E+00  0.0000000E+00  0.1428571E+00  0.1564813E-04  0.0000000E+00 -0.8559053E-01
  0.7959183E+00  0.0000000E+00  0.1428571E+00  0.1310094E-04  0.0000000E+00 -0.8558390E-01
  0.8367347E+00  0.0000000E+00  0.1428571E+00  0.1029659E-04  0.0000000E+00 -0.8557850E-01
  0.8775510E+00  0.0000000E+00  0.1428571E+00  0.7283158E-05  0.0000000E+00 -0.8557443E-01
  0.9183673E+00  0.0000000E+00  0.1428571E+00  0.4112905E-05  0.0000000E+00 -0.8557178E-01
  0.9591837E+00  0.0000000E+00  0.1428571E+00  0.8426042E-06  0.0000000E+00 -0.8557061E-01
  0.1000000E+01  0.0000000E+00  0.1428571E+00 -0.2470392E-05  0.0000000E+00 -0.8557096E-01
  0.1040816E+01  0.0000000E+00  0.1428571E+00 -0.5766572E-05  0.0000000E+00 -0.8557282E-01
  0.1081633E+01  0.0000000E+00  0.1428571E+00 -0.8986652E-05  0.0000000E+00 -0.8557618E-01
  0.1122449E+01  0.0000000E+00  0.1428571E+00 -0.1207558E-04  0.0000000E+00 -0.8558099E-01
  0.1163265E+01  0.0000000E+00  0.1428571E+00 -0.1497518E-04  0.0000000E+00 -0.8558718E-01
  0.1204082E+01  0.0000000E+00  0.1428571E+00 -0.1763707E-04  0.0000000E+00 -0.8559464E-01
  0.1244898E+01  0.0000000E+00  0.1428571E+00 -0.2001674E-04  0.0000000E+00 -0.8560326E-01
  0.1285714E+01  0.0000000E+00  0.1428571E+00 -0.2207173E-04  0.0000000E+00 -0.8561289E-01
  0.1326531E+01  0.0000000E+00  0.1428571E+00 -0.2377036E-04  0.0000000E+00 -0.8562338E-01
  0.1367347E+01  0.0000000E+00  0.1428571E+00 -0.2508724E-04  0.0000000E+00 -0.8563457E-01
  0.1408163E+01  0.0000000E+00  0.1428571E+00 -0.2600295E-04  0.0000000E+00 -0.8564626E-01
  0.1448980E+01  0.0000000E+00  0.1428571E+00 -0.2650562E-04  0.0000000E+00 -0.8565827E-01
  0.1489796E+01  0.0000000E+00  0.1428571E+00 -0.2659104E-04  0.0000000E+00 -0.8567041E-01
  0.1530612E+01  0.0000000E+00  0.1428571E+00 -0.2626203E-04  0.0000000E+00 -0.8568249E-01
  0.1571429E+01  0.0000000E+00  0.1428571E+00 -0.2552803E-04  0.0000000E+00 -0.8569433E-01
  0.1612245E+01  0.0000000E+00  0.1428571E+00 -0.2440451E-04  0.0000000E+00 -0.8570574E-01
  0.1653061E+01  0.0000000E+00  0.1428571E+00 -0.2291243E-04  0.0000000E+00 -0.8571654E-01
  0.1693878E+01  0.0000000E+00  0.1428571E+00 -0.2107772E-04  0.0000000E+00 -0.8572659E-01
  0.1734694E+01  0.0000000E+00  0.1428571E+00 -0.1893091E-04  0.0000000E+00 -0.8573572E-01
  0.1775510E+01  0.0000000E+00  0.1428571E+00 -0.1650641E-04  0.0000000E+00 -0.8574381E-01
  0.1816326E+01  0.0000000E+00  0.1428571E+00 -0.1384171E-04  0.0000000E+00 -0.8575073E-01
  0.1857143E+01  0.0000000E+00  0.1428571E+00 -0.1097680E-04  0.0000000E+00 -0.8575639E-01
  0.1897959E+01  0.0000000E+00  0.1428571E+00 -0.7954005E-05  0.0000000E+00 -0.8576071E-01
  0.1938776E+01  0.0000000E+00  0.1428571E+00 -0.4817420E-05  0.0000000E+00 -0.8576362E-01
  0.1989796E+01  0.0000000E+00  0.1428571E+00 -0.1613213E-05  0.0000000E+00 -0.8576508E-01
  0.2040816E-01  0.0000000E+00  0.1836735E+00  0.1818833E-05  0.0000000E+00 -0.8573794E-01
  0.6122449E-01  0.0000000E+00  0.1836735E+00  0.5429638E-05  0.0000000E+00 -0.8573652E-01
  0.1020408E+00  0.0000000E+00  0.1836735E+00  0.8956322E-05  0.0000000E+00 -0.8573368E-01
  0.1428571E+00  0.0000000E+00  0.1836735E+00  0.1234274E-04  0.0000000E+00 -0.8572949E-01
  0.1836735E+00  0.0000000E+00  0.1836735E+00  0.1553173E-04  0.0000000E+00 -0.8572400E-01
  0.2244898E+00  0.0000000E+00  0.1836735E+00  0.1847305E-04  0.0000000E+00 -0.8571730E-01
  0.2653061E+00  0.0000000E+00  0.1836735E+00  0.2111829E-04  0.0000000E+00 -0.8570950E-01
  0.3061225E+00  0.0000000E+00  0.1836735E+00  0.2341991E-04  0.0000000E+00 -0.8570071E-01
  0.3469388E+00  0.0000000E+00  0.1836735E+00  0.2533798E-04  0.0000000E+00 -0.8569109E-01
  0.3877551E+00  0.0000000E+00  0.1836735E+00  0.2683724E-04  0.0000000E+00 -0.8568079E-01
  0.4285714E+00  0.0000000E+00  0.1836735E+00  0.2788731E-04  0.0000000E+00 -0.8566999E-01
  0.4693878E+00  0.0000000E+00  0.1836735E+00  0.2846449E-04  0.0000000E+00 -0.8565885E-01
  0.5102041E+00  0.0000000E+00  0.1836735E+00  0.2855279E-04  0.0000000E+00 -0.8564757E-01
  0.5510204E+00  0.0000000E+00  0.1836735E+00  0.2814416E-04  0.0000000E+00 -0.8563634E-01
  0.5918368E+00  0.0000000E+00  0.1836735E+00  0.2723885E-04  0.0000000E+00 -0.8562537E-01
  0.6326531E+00  0.0000000E+00  0.1836735E+00  0.2584574E-04  0.0000000E+00 -0.8561485E-01
  0.6734694E+00  0.0000000E+00  0.1836735E+00  0.2398268E-04  0.0000000E+00 -0.8560496E-01
  0.7142857E+00  0.0000000E+00  0.1836735E+00  0.2167645E-04  0.0000000E+00 -0.8559589E-01
  0.7551020E+00  0.0000000E+00  0.1836735E+00  0.1896256E-04  0.0000000E+00 -0.8558781E-01
  0.7959183E+00  0.0000000E+00  0.1836735E+00  0.1588485E-04  0.0000000E+00 -0.8558087E-01
  0.8367347E+00  0.0000000E+00  0.1836735E+00  0.1249477E-04  0.0000000E+00 -0.8557520E-01
  0.8775510E+00  0.0000000E+00  0.1836735E+00  0.8850508E-05  0.0000000E+00 -0.8557093E-01
  0.9183673E+00  0.0000000E+00  0.1836735E+00  0.5015855E-05  0.0000000E+00 -0.8556814E-01
  0.9591837E+00  0.0000000E+00  0.1836735E+00  0.1059060E-05  0.0000000E+00 -0.8556689E-01
  0.1000000E+01  0.0000000E+00  0.1836735E+00 -0.2949425E-05  0.0000000E+00 -0.8556723E-01
  0.1040816E+01  0.0000000E+00  0.1836735E+00 -0.6937700E-05  0.0000000E+00 -0.8556914E-01
  0.1081633E+01  0.0000000E+00  0.1836735E+00 -0.1083365E-04  0.0000000E+00 -0.8557262E-01
  0.1122449E+01  0.0000000E+00  0.1836735E+00 -0.1456978E-04  0.0000000E+00 -0.8557761E-01
  0.1163265E+01  0.0000000E+00  0.1836735E+00 -0.1807639E-04  0.0000000E+00 -0.8558403E-01
  0.1204082E+01  0.0000000E+00  0.1836735E+00 -0.2129418E-04  0.0000000E+00 -0.8559178E-01
  0.1244898E+01  0.0000000E+00  0.1836735E+00 -0.2416915E-04  0.0000000E+00 -0.8560074E-01
  0.1285714E+01  0.0000000E+00  0.1836735E+00 -0.2665052E-04  0.0000000E+00 -0.8561075E-01
  0.1326531E+01  0.0000000E+00  0.1836735E+00 -0.2869987E-04  0.0000000E+00 -0.8562165E-01
  0.1367347E+01  0.0000000E+00  0.1836735E+00 -0.3028660E-04  0.0000000E+00 -0.8563327E-01
  0.1408163E+01  0.0000000E+00  0.1836735E+00 -0.3138764E-04  0.0000000E+00 -0.8564541E-01
  0.1448980E+01  0.0000000E+00  0.1836735E+00 -0.3198915E-04  0.0000000E+00 -0.8565788E-01
  0.1489796E+01  0.0000000E+00  0.1836735E+00 -0.3208656E-04  0.0000000E+00 -0.8567049E-01
  0.1530612E+01  0.0000000E+00  0.1836735E+00 -0.3168368E-04  0.0000000E+00 -0.8568302E-01
  0.1571429E+01  0.0000000E+00  0.1836735E+00 -0.3079222E-04  0.0000000E+00 -0.8569530E-01
  0.1612245E+01  0.0000000E+00  0.1836735E+00 -0.2943132E-04  0.0000000E+00 -0.8570713E-01
  0.1653061E+01  0.0000000E+00  0.1836735E+00 -0.2762681E-04  0.0000000E+00 -0.8571833E-01
  0.1693878E+01  0.0000000E+00  0.1836735E+00 -0.2541027E-04  0.0000000E+00 -0.8572874E-01
  0.1734694E+01  0.0000000E+00  0.1836735E+00 -0.2281855E-04  0.0000000E+00 -0.8573819E-01
  0.1775510E+01  0.0000000E+00  0.1836735E+00 -0.1989321E-04  0.0000000E+00 -0.8574657E-01
  0.1816326E+01  0.0000000E+00  0.1836735E+00 -0.1667963E-04  0.0000000E+00 -0.8575373E-01
  0.1857143E+01  0.0000000E+00  0.1836735E+00 -0.1322608E-04  0.0000000E+00 -0.8575959E-01
  0.1897959E+01  0.0000000E+00  0.1836735E+00 -0.9583203E-05  0.0000000E+00 -0.8576406E-01
  0.1938776E+01  0.0000000E+00  0.1836735E+00 -0.5803976E-05  0.0000000E+00 -0.8576707E-01
  0.1989796E+01  0.0000000E+00  0.1836735E+00 -0.1943462E-05  0.0000000E+00 -0.8576859E-01
  0.2040816E-01  0.0000000E+00  0.2244898E+00  0.2112649E-05  0.0000000E+00 -0.8574179E-01
  0.6122449E-01  0.0000000E+00  0.2244898E+00  0.6306706E-05  0.0000000E+00 -0.8574030E-01
  0.1020408E+00  0.0000000E+00  0.2244898E+00  0.1040358E-04  0.0000000E+00 -0.8573735E-01
  0.1428571E+00  0.0000000E+00  0.2244898E+00  0.1433836E-04  0.0000000E+00 -0.8573297E-01
  0.1836735E+00  0.0000000E+00  0.2244898E+00  0.1804546E-04  0.0000000E+00 -0.8572724E-01
  0.2244898E+00  0.0000000E+00  0.2244898E+00  0.2146637E-04  0.0000000E+00 -0.8572025E-01
  0.2653061E+00  0.0000000E+00  0.2244898E+00  0.2454491E-04  0.0000000E+00 -0.8571210E-01
  0.3061225E+00  0.0000000E+00  0.2244898E+00  0.2722614E-04  0.0000000E+00 -0.8570292E-01
  0.3469388E+00  0.0000000E+00  0.2244898E+00  0.2946333E-04  0.0000000E+00 -0.8569287E-01
  0.3877551E+00  0.0000000E+00  0.2244898E+00  0.3121515E-04  0.0000000E+00 -0.8568210E-01
  0.4285714E+00  0.0000000E+00  0.2244898E+00  0.3244595E-04  0.0000000E+00 -0.8567079E-01
  0.4693878E+00  0.0000000E+00  0.2244898E+00  0.3312778E-04  0.0000000E+00 -0.8565913E-01
  0.5102041E+00  0.0000000E+00  0.2244898E+00  0.3324146E-04  0.0000000E+00 -0.8564731E-01
  0.5510204E+00  0.0000000E+00  0.2244898E+00  0.3277704E-04  0.0000000E+00 -0.8563555E-01
  0.5918368E+00  0.0000000E+00  0.2244898E+00  0.3173419E-04  0.0000000E+00 -0.8562404E-01
  0.6326531E+00  0.0000000E+00  0.2244898E+00  0.3012273E-04  0.0000000E+00 -0.8561300E-01
  0.6734694E+00  0.0000000E+00  0.2244898E+00  0.2796292E-04  0.0000000E+00 -0.8560261E-01
  0.7142857E+00  0.0000000E+00  0.2244898E+00  0.2528553E-04  0.0000000E+00 -0.8559308E-01
  0.7551020E+00  0.0000000E+00  0.2244898E+00  0.2213161E-04  0.0000000E+00 -0.8558458E-01
  0.7959183E+00  0.0000000E+00  0.2244898E+00  0.1855211E-04  0.0000000E+00 -0.8557727E-01
  0.8367347E+00  0.0000000E+00  0.2244898E+00  0.1460700E-04  0.0000000E+00 -0.8557130E-01
  0.8775510E+00  0.0000000E+00  0.2244898E+00  0.1036393E-04  0.0000000E+00 -0.8556679E-01
  0.9183673E+00  0.0000000E+00  0.2244898E+00  0.5897953E-05  0.0000000E+00 -0.8556383E-01
  0.9591837E+00  0.0000000E+00  0.2244898E+00  0.1288512E-05  0.0000000E+00 -0.8556248E-01
  0.1000000E+01  0.0000000E+00  0.2244898E+00 -0.3381622E-05  0.0000000E+00 -0.8556280E-01
  0.1040816E+01  0.0000000E+00  0.2244898E+00 -0.8028159E-05  0.0000000E+00 -0.8556477E-01
  0.1081633E+01  0.0000000E+00  0.2244898E+00 -0.1256668E-04  0.0000000E+00 -0.8556839E-01
  0.1122449E+01  0.0000000E+00  0.2244898E+00 -0.1691774E-04  0.0000000E+00 -0.8557359E-01
  0.1163265E+01  0.0000000E+00  0.2244898E+00 -0.2100038E-04  0.0000000E+00 -0.8558029E-01
  0.1204082E+01  0.0000000E+00  0.2244898E+00 -0.2474490E-04  0.0000000E+00 -0.8558839E-01
  0.1244898E+01  0.0000000E+00  0.2244898E+00 -0.2808821E-04  0.0000000E+00 -0.8559775E-01
  0.1285714E+01  0.0000000E+00  0.2244898E+00 -0.3097164E-04  0.0000000E+00 -0.8560821E-01
  0.1326531E+01  0.0000000E+00  0.2244898E+00 -0.3335050E-04  0.0000000E+00 -0.8561960E-01
  0.1367347E+01  0.0000000E+00  0.2244898E+00 -0.3518945E-04  0.0000000E+00 -0.8563173E-01
  0.1408163E+01  0.0000000E+00  0.2244898E+00 -0.3646217E-04  0.0000000E+00 -0.8564441E-01
  0.1448980E+01  0.0000000E+00  0.2244898E+00 -0.3715317E-04  0.0000000E+00 -0.8565743E-01
  0.1489796E+01  0.0000000E+00  0.2244898E+00 -0.3725786E-04  0.0000000E+00 -0.8567057E-01
  0.1530612E+01  0.0000000E+00  0.2244898E+00 -0.3678140E-04  0.0000000E+00 -0.8568365E-01
  0.1571429E+01  0.0000000E+00  0.2244898E+00 -0.3573793E-04  0.0000000E+00 -0.8569644E-01
  0.1612245E+01  0.0000000E+00  0.2244898E+00 -0.3415021E-04  0.0000000E+00 -0.8570877E-01
  0.1653061E+01  0.0000000E+00  0.2244898E+00 -0.3204885E-04  0.0000000E+00 -0.8572043E-01
  0.1693878E+01  0.0000000E+00  0.2244898E+00 -0.2947113E-04  0.0000000E+00 -0.8573126E-01
  0.1734694E+01  0.0000000E+00  0.2244898E+00 -0.2646002E-04  0.0000000E+00 -0.8574111E-01
  0.1775510E+01  0.0000000E+00  0.2244898E+00 -0.2306372E-04  0.0000000E+00 -0.8574982E-01
  0.1816326E+01  0.0000000E+00  0.2244898E+00 -0.1933486E-04  0.0000000E+00 -0.8575727E-01
  0.1857143E+01  0.0000000E+00  0.2244898E+00 -0.1532957E-04  0.0000000E+00 -0.8576336E-01
  0.1897959E+01  0.0000000E+00  0.2244898E+00 -0.1110629E-04  0.0000000E+00 -0.8576800E-01
  0.1938776E+01  0.0000000E+00  0.2244898E+00 -0.6726196E-05  0.0000000E+00 -0.8577113E-01
  0.1989796E+01  0.0000000E+00  0.2244898E+00 -0.2252302E-05  0.0000000E+00 -0.8577271E-01
  0.2040816E-01  0.0000000E+00  0.2653061E+00  0.2395727E-05  0.0000000E+00 -0.8574620E-01
  0.6122449E-01  0.0000000E+00  0.2653061E+00  0.7151878E-05  0.0000000E+00 -0.8574464E-01
  0.1020408E+00  0.0000000E+00  0.2653061E+00  0.1179853E-04  0.0000000E+00 -0.8574154E-01
  0.1428571E+00  0.0000000E+00  0.2653061E+00  0.1626261E-04  0.0000000E+00 -0.8573696E-01
  0.1836735E+00  0.0000000E+00  0.2653061E+00  0.2047057E-04  0.0000000E+00 -0.8573095E-01
  0.2244898E+00  0.0000000E+00  0.2653061E+00  0.2435607E-04  0.0000000E+00 -0.8572362E-01
  0.2653061E+00  0.0000000E+00  0.2653061E+00  0.2785544E-04  0.0000000E+00 -0.8571508E-01
  0.3061225E+00  0.0000000E+00  0.2653061E+00  0.3090661E-04  0.0000000E+00 -0.8570545E-01
  0.3469388E+00  0.0000000E+00  0.2653061E+00  0.3345623E-04  0.0000000E+00 -0.8569490E-01
  0.3877551E+00  0.0000000E+00  0.2653061E+00  0.3545694E-04  0.0000000E+00 -0.8568359E-01
  0.4285714E+00  0.0000000E+00  0.2653061E+00  0.3686781E-04  0.0000000E+00 -0.8567171E-01
  0.4693878E+00  0.0000000E+00  0.2653061E+00  0.3765650E-04  0.0000000E+00 -0.8565945E-01
  0.5102041E+00  0.0000000E+00  0.2653061E+00  0.3780049E-04  0.0000000E+00 -0.8564703E-01
  0.5510204E+00  0.0000000E+00  0.2653061E+00  0.3728764E-04  0.0000000E+00 -0.8563464E-01
  0.5918368E+00  0.0000000E+00  0.2653061E+00  0.3611677E-04  0.0000000E+00 -0.8562252E-01
  0.6326531E+00  0.0000000E+00  0.2653061E+00  0.3429828E-04  0.0000000E+00 -0.8561088E-01
  0.6734694E+00  0.0000000E+00  0.2653061E+00  0.3185453E-04  0.0000000E+00 -0.8559992E-01
  0.7142857E+00  0.0000000E+00  0.2653061E+00  0.2881994E-04  0.0000000E+00 -0.8558985E-01
  0.7551020E+00  0.0000000E+00  0.2653061E+00  0.2524080E-04  0.0000000E+00 -0.8558087E-01
  0.7959183E+00  0.0000000E+00  0.2653061E+00  0.2117487E-04  0.0000000E+00 -0.8557314E-01
  0.8367347E+00  0.0000000E+00  0.2653061E+00  0.1669048E-04  0.0000000E+00 -0.8556681E-01
  0.8775510E+00  0.0000000E+00  0.2653061E+00  0.1186458E-04  0.0000000E+00 -0.8556202E-01
  0.9183673E+00  0.0000000E+00  0.2653061E+00  0.6783215E-05  0.0000000E+00 -0.8555886E-01
  0.9591837E+00  0.0000000E+00  0.2653061E+00  0.1537176E-05  0.0000000E+00 -0.8555741E-01
  0.1000000E+01  0.0000000E+00  0.2653061E+00 -0.3778668E-05  0.0000000E+00 -0.8555770E-01
  0.1040816E+01  0.0000000E+00  0.2653061E+00 -0.9067598E-05  0.0000000E+00 -0.8555975E-01
  0.1081633E+01  0.0000000E+00  0.2653061E+00 -0.1423288E-04  0.0000000E+00 -0.8556352E-01
  0.1122449E+01  0.0000000E+00  0.2653061E+00 -0.1918320E-04  0.0000000E+00 -0.8556897E-01
  0.1163265E+01  0.0000000E+00  0.2653061E+00 -0.2382641E-04  0.0000000E+00 -0.8557600E-01
  0.1204082E+01  0.0000000E+00  0.2653061E+00 -0.2808258E-04  0.0000000E+00 -0.8558449E-01
  0.1244898E+01  0.0000000E+00  0.2653061E+00 -0.3187968E-04  0.0000000E+00 -0.8559431E-01
  0.1285714E+01  0.0000000E+00  0.2653061E+00 -0.3515136E-04  0.0000000E+00 -0.8560529E-01
  0.1326531E+01  0.0000000E+00  0.2653061E+00 -0.3784694E-04  0.0000000E+00 -0.8561724E-01