title = "dataset feddes"
variables = "time", "absolute mass balance error", "relative mass balance error", "absolute cumulative mass balance error", "relative cumulative mass balance error" 
zone t = "mass balance error -  variably saturated flow", f=point
  1.0000E-10 -1.6201E-18 -1.8615E-16 -1.6201E-18 -1.8615E-16
  6.0000E-10  8.6130E-19  9.8960E-17 -7.5884E-19 -8.7187E-17
  3.1000E-09 -1.8253E-16 -2.0971E-14 -1.8328E-16 -2.1059E-14
  1.5600E-08 -2.8446E-14 -3.2683E-12 -2.8630E-14 -3.2894E-12
  7.8100E-08 -4.1050E-17 -4.7164E-15 -2.8671E-14 -3.2941E-12
  3.9060E-07 -5.5927E-15 -6.4254E-13 -3.4263E-14 -3.9365E-12
  1.9531E-06 -2.4092E-17 -2.7673E-15 -3.4287E-14 -3.9384E-12
  9.7656E-06 -1.5781E-14 -1.8110E-12 -5.0068E-14 -5.7458E-12
  4.3892E-05 -1.1106E-16 -1.2710E-14 -5.0179E-14 -5.7430E-12
  9.4526E-05 -1.4751E-17 -1.6837E-15 -5.0194E-14 -5.7290E-12
  1.6916E-04 -3.1819E-17 -3.6219E-15 -5.0226E-14 -5.7170E-12
  2.8115E-04 -2.0036E-15 -2.2744E-13 -5.2229E-14 -5.9288E-12
  4.6057E-04  9.4457E-15  1.0691E-12 -4.2784E-14 -4.8424E-12
  7.9728E-04 -1.3649E-15 -1.5392E-13 -4.4148E-14 -4.9787E-12
  1.4588E-03  1.1521E-12  1.2931E-10  1.1080E-12  1.2436E-10
  2.2143E-03 -1.1602E-14 -1.2970E-12  1.0964E-12  1.2256E-10
  3.2807E-03  1.0144E-13  1.1290E-11  1.1978E-12  1.3332E-10
  5.1212E-03  1.1533E-15  1.2765E-13  1.1990E-12  1.3271E-10
  7.4804E-03 -1.7659E-13 -1.9438E-11  1.0224E-12  1.1253E-10
  1.0659E-02 -1.4537E-12 -1.5907E-10 -4.3134E-13 -4.7196E-11
  1.5842E-02 -3.1447E-11 -3.4152E-09 -3.1879E-11 -3.4621E-09
  2.2011E-02 -2.6206E-11 -2.8256E-09 -5.8084E-11 -6.2630E-09
  3.1565E-02 -5.4184E-11 -5.7913E-09 -1.1227E-10 -1.1999E-08
  4.3375E-02 -1.3436E-11 -1.4235E-09 -1.2570E-10 -1.3318E-08
  5.9667E-02 -2.7284E-12 -2.8626E-10 -1.2843E-10 -1.3475E-08
  8.2297E-02 -9.2778E-10 -9.6282E-08 -1.0562E-09 -1.0961E-07
  1.1197E-01 -4.8587E-10 -4.9841E-08 -1.5421E-09 -1.5819E-07
  1.5184E-01 -1.2562E-09 -1.2726E-07 -2.7983E-09 -2.8347E-07
  2.0587E-01  2.4520E-09  2.4500E-07 -3.4634E-10 -3.4607E-08
  2.7954E-01 -7.8572E-09 -7.7345E-07 -8.2035E-09 -8.0754E-07
  3.8117E-01  5.0040E-09  4.8459E-07 -3.1995E-09 -3.0984E-07
  5.2409E-01 -1.0337E-08 -9.8309E-07 -1.3537E-08 -1.2874E-06
  7.2160E-01  1.1003E-08  1.0262E-06 -2.5337E-09 -2.3632E-07
  1.0000E+00  1.9738E-08  1.8024E-06  1.7204E-08  1.5711E-06
  1.4057E+00  3.7409E-10  3.1410E-08  1.7578E-08  1.4759E-06
  1.6085E+00 -9.0048E-10 -7.2767E-08  1.6678E-08  1.3477E-06
  1.7982E+00  7.1871E-09  5.6153E-07  2.3865E-08  1.8645E-06
  1.9994E+00  1.9600E-09  1.4804E-07  2.5825E-08  1.9505E-06
  2.0000E+00  8.8429E-15  6.6782E-13  2.5825E-08  1.9503E-06
  2.0031E+00 -4.6506E-12 -3.5104E-10  2.5820E-08  1.9490E-06
  2.0184E+00 -3.6880E-10 -2.7768E-08  2.5451E-08  1.9163E-06
  2.0951E+00 -1.9031E-09 -1.4151E-07  2.3548E-08  1.7510E-06
  2.3005E+00 -1.2397E-07 -8.9274E-06 -1.0042E-07 -7.2316E-06
  2.5080E+00 -7.3078E-08 -5.1019E-06 -1.7350E-07 -1.2113E-05
  2.7150E+00 -1.8431E-08 -1.2493E-06 -1.9193E-07 -1.3010E-05
  2.9257E+00 -1.5134E-08 -9.9697E-07 -2.0707E-07 -1.3641E-05
  3.0000E+00 -3.9912E-08 -2.6038E-06 -2.4698E-07 -1.6113E-05
  3.2499E+00 -5.0011E-08 -3.1684E-06 -2.9699E-07 -1.8816E-05
  3.5685E+00 -2.2432E-09 -1.3834E-07 -2.9923E-07 -1.8455E-05
  4.0000E+00 -3.9921E-07 -2.4232E-05 -6.9845E-07 -4.2396E-05
  5.0000E+00 -7.1727E-07 -4.3283E-05 -1.4157E-06 -8.5431E-05
  6.0000E+00 -1.0020E-06 -6.0416E-05 -2.4177E-06 -1.4578E-04
  7.0000E+00  8.4309E-08  5.0830E-06 -2.3334E-06 -1.4068E-04
  8.0000E+00 -4.4994E-07 -2.7126E-05 -2.7833E-06 -1.6780E-04
  9.0000E+00  1.8400E-04  1.1093E-02  1.8121E-04  1.0925E-02
  1.0000E+01  2.4651E-04  1.4863E-02  4.2773E-04  2.5788E-02
  1.1000E+01  3.0902E-04  1.8632E-02  7.3675E-04  4.4420E-02
  1.2000E+01  3.7024E-04  2.2323E-02  1.1070E-03  6.6744E-02
  1.3000E+01  4.3262E-04  2.6085E-02  1.5396E-03  9.2830E-02
  1.4000E+01  4.9491E-04  2.9841E-02  2.0345E-03  1.2267E-01
  1.5000E+01  5.5746E-04  3.3613E-02  2.5920E-03  1.5629E-01
  1.6000E+01  6.2001E-04  3.7385E-02  3.2120E-03  1.9367E-01
  1.7000E+01  6.8250E-04  4.1153E-02  3.8945E-03  2.3483E-01
  1.8000E+01  7.4515E-04  4.4931E-02  4.6396E-03  2.7976E-01
  1.9000E+01  8.0756E-04  4.8695E-02  5.4472E-03  3.2846E-01
  2.0000E+01  8.7043E-04  5.2487E-02  6.3176E-03  3.8095E-01
  2.1000E+01  9.3318E-04  5.6271E-02  7.2508E-03  4.3723E-01
  2.2000E+01  9.9601E-04  6.0061E-02  8.2468E-03  4.9730E-01
  2.3000E+01  1.0589E-03  6.3857E-02  9.3058E-03  5.6116E-01
  2.4000E+01  1.1218E-03  6.7650E-02  1.0428E-02  6.2882E-01
  2.5000E+01  1.1848E-03  7.1447E-02  1.1612E-02  7.0028E-01
  2.6000E+01  1.2478E-03  7.5248E-02  1.2860E-02  7.7554E-01
  2.7000E+01  1.3108E-03  7.9049E-02  1.4171E-02  8.5459E-01
  2.8000E+01  1.3739E-03  8.2856E-02  1.5545E-02  9.3746E-01
  2.9000E+01  1.4370E-03  8.6663E-02  1.6982E-02  1.0241E+00
  3.0000E+01  1.5003E-03  9.0479E-02  1.8482E-02  1.1146E+00
  3.1000E+01  1.5635E-03  9.4293E-02  2.0046E-02  1.2089E+00
  3.2000E+01  1.6267E-03  9.8107E-02  2.1672E-02  1.3071E+00
  3.3000E+01  1.6900E-03  1.0192E-01  2.3362E-02  1.4090E+00
  3.4000E+01  1.7533E-03  1.0574E-01  2.5116E-02  1.5148E+00
  3.5000E+01  1.8166E-03  1.0956E-01  2.6932E-02  1.6244E+00
  3.6000E+01  1.8799E-03  1.1338E-01  2.8812E-02  1.7378E+00
  3.7000E+01  1.9432E-03  1.1720E-01  3.0755E-02  1.8550E+00
  3.8000E+01  2.0065E-03  1.2102E-01  3.2762E-02  1.9760E+00
  3.9000E+01  2.0697E-03  1.2484E-01  3.4832E-02  2.1009E+00
  4.0000E+01  2.1330E-03  1.2865E-01  3.6965E-02  2.2296E+00
  4.1000E+01  2.1962E-03  1.3247E-01  3.9161E-02  2.3621E+00
  4.2000E+01  2.2594E-03  1.3628E-01  4.1420E-02  2.4984E+00
  4.3000E+01  2.3226E-03  1.4010E-01  4.3743E-02  2.6385E+00
  4.4000E+01  2.3858E-03  1.4391E-01  4.6129E-02  2.7825E+00
  4.5000E+01  2.4492E-03  1.4774E-01  4.8578E-02  2.9303E+00
  4.6000E+01  2.5122E-03  1.5154E-01  5.1090E-02  3.0818E+00
  4.7000E+01  2.5751E-03  1.5534E-01  5.3665E-02  3.2372E+00
  4.8000E+01  2.6381E-03  1.5914E-01  5.6303E-02  3.3964E+00
  4.9000E+01  2.7010E-03  1.6294E-01  5.9004E-02  3.5594E+00
  5.0000E+01  2.7642E-03  1.6675E-01  6.1768E-02  3.7262E+00
  5.1000E+01  2.8268E-03  1.7053E-01  6.4595E-02  3.8967E+00
  5.2000E+01  2.8893E-03  1.7430E-01  6.7485E-02  4.0711E+00
  5.3000E+01  2.9525E-03  1.7812E-01  7.0437E-02  4.2492E+00
  5.4000E+01  3.0146E-03  1.8186E-01  7.3452E-02  4.4311E+00
  5.5000E+01  3.0779E-03  1.8568E-01  7.6530E-02  4.6169E+00
  5.6000E+01  3.1402E-03  1.8945E-01  7.9670E-02  4.8064E+00
  5.7000E+01  3.1398E-03  1.8942E-01  8.2810E-02  4.9958E+00
  5.8000E+01  3.1377E-03  1.8929E-01  8.5947E-02  5.1851E+00
  5.9000E+01  3.1353E-03  1.8915E-01  8.9083E-02  5.3742E+00
  6.0000E+01  3.1329E-03  1.8900E-01  9.2216E-02  5.5632E+00
