title = "dataset feddes"
variables = "x", "y", "z", "vx", "vy", "vz"
zone t = "velocities, solution time =  6.000E+01 days        " i =   49, j =   49, k =    1,  f=point
  0.2040816E-01  0.0000000E+00  0.2040816E-01  0.6834968E-06  0.0000000E+00 -0.8492675E-01
  0.6122449E-01  0.0000000E+00  0.2040816E-01  0.2038410E-05  0.0000000E+00 -0.8492366E-01
  0.1020408E+00  0.0000000E+00  0.2040816E-01  0.3357346E-05  0.0000000E+00 -0.8491754E-01
  0.1428571E+00  0.0000000E+00  0.2040816E-01  0.4616961E-05  0.0000000E+00 -0.8490848E-01
  0.1836735E+00  0.0000000E+00  0.2040816E-01  0.5794133E-05  0.0000000E+00 -0.8489666E-01
  0.2244898E+00  0.0000000E+00  0.2040816E-01  0.6866679E-05  0.0000000E+00 -0.8488229E-01
  0.2653061E+00  0.0000000E+00  0.2040816E-01  0.7813366E-05  0.0000000E+00 -0.8486563E-01
  0.3061225E+00  0.0000000E+00  0.2040816E-01  0.8614124E-05  0.0000000E+00 -0.8484698E-01
  0.3469388E+00  0.0000000E+00  0.2040816E-01  0.9250609E-05  0.0000000E+00 -0.8482670E-01
  0.3877551E+00  0.0000000E+00  0.2040816E-01  0.9706595E-05  0.0000000E+00 -0.8480519E-01
  0.4285714E+00  0.0000000E+00  0.2040816E-01  0.9968339E-05  0.0000000E+00 -0.8478285E-01
  0.4693878E+00  0.0000000E+00  0.2040816E-01  0.1002501E-04  0.0000000E+00 -0.8476016E-01
  0.5102041E+00  0.0000000E+00  0.2040816E-01  0.9869230E-05  0.0000000E+00 -0.8473758E-01
  0.5510204E+00  0.0000000E+00  0.2040816E-01  0.9497738E-05  0.0000000E+00 -0.8471560E-01
  0.5918368E+00  0.0000000E+00  0.2040816E-01  0.8912522E-05  0.0000000E+00 -0.8469471E-01
  0.6326531E+00  0.0000000E+00  0.2040816E-01  0.8122559E-05  0.0000000E+00 -0.8467538E-01
  0.6734694E+00  0.0000000E+00  0.2040816E-01  0.7145687E-05  0.0000000E+00 -0.8465805E-01
  0.7142857E+00  0.0000000E+00  0.2040816E-01  0.6007188E-05  0.0000000E+00 -0.8464313E-01
  0.7551020E+00  0.0000000E+00  0.2040816E-01  0.4730150E-05  0.0000000E+00 -0.8463094E-01
  0.7959183E+00  0.0000000E+00  0.2040816E-01  0.3335546E-05  0.0000000E+00 -0.8462179E-01
  0.8367347E+00  0.0000000E+00  0.2040816E-01  0.1846992E-05  0.0000000E+00 -0.8461591E-01
  0.8775510E+00  0.0000000E+00  0.2040816E-01  0.2958482E-06  0.0000000E+00 -0.8461348E-01
  0.9183673E+00  0.0000000E+00  0.2040816E-01 -0.1278526E-05  0.0000000E+00 -0.8461459E-01
  0.9591837E+00  0.0000000E+00  0.2040816E-01 -0.2841815E-05  0.0000000E+00 -0.8461927E-01
  0.1000000E+01  0.0000000E+00  0.2040816E-01 -0.4365925E-05  0.0000000E+00 -0.8462745E-01
  0.1040816E+01  0.0000000E+00  0.2040816E-01 -0.5826397E-05  0.0000000E+00 -0.8463901E-01
  0.1081633E+01  0.0000000E+00  0.2040816E-01 -0.7201093E-05  0.0000000E+00 -0.8465380E-01
  0.1122449E+01  0.0000000E+00  0.2040816E-01 -0.8470278E-05  0.0000000E+00 -0.8467158E-01
  0.1163265E+01  0.0000000E+00  0.2040816E-01 -0.9616090E-05  0.0000000E+00 -0.8469211E-01
  0.1204082E+01  0.0000000E+00  0.2040816E-01 -0.1062256E-04  0.0000000E+00 -0.8471507E-01
  0.1244898E+01  0.0000000E+00  0.2040816E-01 -0.1147646E-04  0.0000000E+00 -0.8474015E-01
  0.1285714E+01  0.0000000E+00  0.2040816E-01 -0.1216743E-04  0.0000000E+00 -0.8476699E-01
  0.1326531E+01  0.0000000E+00  0.2040816E-01 -0.1268787E-04  0.0000000E+00 -0.8479520E-01
  0.1367347E+01  0.0000000E+00  0.2040816E-01 -0.1303296E-04  0.0000000E+00 -0.8482439E-01
  0.1408163E+01  0.0000000E+00  0.2040816E-01 -0.1320057E-04  0.0000000E+00 -0.8485417E-01
  0.1448980E+01  0.0000000E+00  0.2040816E-01 -0.1319120E-04  0.0000000E+00 -0.8488413E-01
  0.1489796E+01  0.0000000E+00  0.2040816E-01 -0.1300784E-04  0.0000000E+00 -0.8491387E-01
  0.1530612E+01  0.0000000E+00  0.2040816E-01 -0.1265575E-04  0.0000000E+00 -0.8494300E-01
  0.1571429E+01  0.0000000E+00  0.2040816E-01 -0.1214217E-04  0.0000000E+00 -0.8497116E-01
  0.1612245E+01  0.0000000E+00  0.2040816E-01 -0.1147615E-04  0.0000000E+00 -0.8499797E-01
  0.1653061E+01  0.0000000E+00  0.2040816E-01 -0.1066831E-04  0.0000000E+00 -0.8502311E-01
  0.1693878E+01  0.0000000E+00  0.2040816E-01 -0.9730641E-05  0.0000000E+00 -0.8504627E-01
  0.1734694E+01  0.0000000E+00  0.2040816E-01 -0.8676212E-05  0.0000000E+00 -0.8506718E-01
  0.1775510E+01  0.0000000E+00  0.2040816E-01 -0.7519035E-05  0.0000000E+00 -0.8508556E-01
  0.1816326E+01  0.0000000E+00  0.2040816E-01 -0.6273831E-05  0.0000000E+00 -0.8510123E-01
  0.1857143E+01  0.0000000E+00  0.2040816E-01 -0.4955886E-05  0.0000000E+00 -0.8511398E-01
  0.1897959E+01  0.0000000E+00  0.2040816E-01 -0.3580964E-05  0.0000000E+00 -0.8512367E-01
  0.1938776E+01  0.0000000E+00  0.2040816E-01 -0.2165178E-05  0.0000000E+00 -0.8513020E-01
  0.1989796E+01  0.0000000E+00  0.2040816E-01 -0.7248823E-06  0.0000000E+00 -0.8513348E-01
  0.2040816E-01  0.0000000E+00  0.6122449E-01  0.1874621E-05  0.0000000E+00 -0.8492947E-01
  0.6122449E-01  0.0000000E+00  0.6122449E-01  0.5590858E-05  0.0000000E+00 -0.8492634E-01
  0.1020408E+00  0.0000000E+00  0.6122449E-01  0.9208722E-05  0.0000000E+00 -0.8492011E-01
  0.1428571E+00  0.0000000E+00  0.6122449E-01  0.1266436E-04  0.0000000E+00 -0.8491092E-01
  0.1836735E+00  0.0000000E+00  0.6122449E-01  0.1589461E-04  0.0000000E+00 -0.8489891E-01
  0.2244898E+00  0.0000000E+00  0.6122449E-01  0.1883862E-04  0.0000000E+00 -0.8488431E-01
  0.2653061E+00  0.0000000E+00  0.6122449E-01  0.2143817E-04  0.0000000E+00 -0.8486738E-01
  0.3061225E+00  0.0000000E+00  0.6122449E-01  0.2363827E-04  0.0000000E+00 -0.8484842E-01
  0.3469388E+00  0.0000000E+00  0.6122449E-01  0.2538858E-04  0.0000000E+00 -0.8482780E-01
  0.3877551E+00  0.0000000E+00  0.6122449E-01  0.2664445E-04  0.0000000E+00 -0.8480590E-01
  0.4285714E+00  0.0000000E+00  0.6122449E-01  0.2736797E-04  0.0000000E+00 -0.8478317E-01
  0.4693878E+00  0.0000000E+00  0.6122449E-01  0.2752915E-04  0.0000000E+00 -0.8476006E-01
  0.5102041E+00  0.0000000E+00  0.6122449E-01  0.2710723E-04  0.0000000E+00 -0.8473706E-01
  0.5510204E+00  0.0000000E+00  0.6122449E-01  0.2609237E-04  0.0000000E+00 -0.8471465E-01
  0.5918368E+00  0.0000000E+00  0.6122449E-01  0.2448841E-04  0.0000000E+00 -0.8469334E-01
  0.6326531E+00  0.0000000E+00  0.6122449E-01  0.2231817E-04  0.0000000E+00 -0.8467361E-01
  0.6734694E+00  0.0000000E+00  0.6122449E-01  0.1963156E-04  0.0000000E+00 -0.8465594E-01
  0.7142857E+00  0.0000000E+00  0.6122449E-01  0.1650610E-04  0.0000000E+00 -0.8464071E-01
  0.7551020E+00  0.0000000E+00  0.6122449E-01  0.1300469E-04  0.0000000E+00 -0.8462827E-01
  0.7959183E+00  0.0000000E+00  0.6122449E-01  0.9180297E-05  0.0000000E+00 -0.8461891E-01
  0.8367347E+00  0.0000000E+00  0.6122449E-01  0.5092788E-05  0.0000000E+00 -0.8461287E-01
  0.8775510E+00  0.0000000E+00  0.6122449E-01  0.8276662E-06  0.0000000E+00 -0.8461035E-01
  0.9183673E+00  0.0000000E+00  0.6122449E-01 -0.3496724E-05  0.0000000E+00 -0.8461145E-01
  0.9591837E+00  0.0000000E+00  0.6122449E-01 -0.7785377E-05  0.0000000E+00 -0.8461618E-01
  0.1000000E+01  0.0000000E+00  0.6122449E-01 -0.1196344E-04  0.0000000E+00 -0.8462446E-01
  0.1040816E+01  0.0000000E+00  0.6122449E-01 -0.1596585E-04  0.0000000E+00 -0.8463618E-01
  0.1081633E+01  0.0000000E+00  0.6122449E-01 -0.1973284E-04  0.0000000E+00 -0.8465115E-01
  0.1122449E+01  0.0000000E+00  0.6122449E-01 -0.2321023E-04  0.0000000E+00 -0.8466917E-01
  0.1163265E+01  0.0000000E+00  0.6122449E-01 -0.2634899E-04  0.0000000E+00 -0.8468995E-01
  0.1204082E+01  0.0000000E+00  0.6122449E-01 -0.2910548E-04  0.0000000E+00 -0.8471321E-01
  0.1244898E+01  0.0000000E+00  0.6122449E-01 -0.3144353E-04  0.0000000E+00 -0.8473861E-01
  0.1285714E+01  0.0000000E+00  0.6122449E-01 -0.3333472E-04  0.0000000E+00 -0.8476578E-01
  0.1326531E+01  0.0000000E+00  0.6122449E-01 -0.3475827E-04  0.0000000E+00 -0.8479433E-01
  0.1367347E+01  0.0000000E+00  0.6122449E-01 -0.3570113E-04  0.0000000E+00 -0.8482388E-01
  0.1408163E+01  0.0000000E+00  0.6122449E-01 -0.3615770E-04  0.0000000E+00 -0.8485401E-01
  0.1448980E+01  0.0000000E+00  0.6122449E-01 -0.3612944E-04  0.0000000E+00 -0.8488432E-01
  0.1489796E+01  0.0000000E+00  0.6122449E-01 -0.3562466E-04  0.0000000E+00 -0.8491440E-01
  0.1530612E+01  0.0000000E+00  0.6122449E-01 -0.3465788E-04  0.0000000E+00 -0.8494387E-01
  0.1571429E+01  0.0000000E+00  0.6122449E-01 -0.3324912E-04  0.0000000E+00 -0.8497234E-01
  0.1612245E+01  0.0000000E+00  0.6122449E-01 -0.3142325E-04  0.0000000E+00 -0.8499944E-01
  0.1653061E+01  0.0000000E+00  0.6122449E-01 -0.2920946E-04  0.0000000E+00 -0.8502486E-01
  0.1693878E+01  0.0000000E+00  0.6122449E-01 -0.2664060E-04  0.0000000E+00 -0.8504827E-01
  0.1734694E+01  0.0000000E+00  0.6122449E-01 -0.2375252E-04  0.0000000E+00 -0.8506939E-01
  0.1775510E+01  0.0000000E+00  0.6122449E-01 -0.2058360E-04  0.0000000E+00 -0.8508797E-01
  0.1816326E+01  0.0000000E+00  0.6122449E-01 -0.1717413E-04  0.0000000E+00 -0.8510379E-01
  0.1857143E+01  0.0000000E+00  0.6122449E-01 -0.1356592E-04  0.0000000E+00 -0.8511667E-01
  0.1897959E+01  0.0000000E+00  0.6122449E-01 -0.9802036E-05  0.0000000E+00 -0.8512646E-01
  0.1938776E+01  0.0000000E+00  0.6122449E-01 -0.5926529E-05  0.0000000E+00 -0.8513305E-01
  0.1989796E+01  0.0000000E+00  0.6122449E-01 -0.1983857E-05  0.0000000E+00 -0.8513637E-01
  0.2040816E-01  0.0000000E+00  0.1020408E+00  0.2818571E-05  0.0000000E+00 -0.8493422E-01
  0.6122449E-01  0.0000000E+00  0.1020408E+00  0.8406456E-05  0.0000000E+00 -0.8493099E-01
  0.1020408E+00  0.0000000E+00  0.1020408E+00  0.1384743E-04  0.0000000E+00 -0.8492461E-01
  0.1428571E+00  0.0000000E+00  0.1020408E+00  0.1904592E-04  0.0000000E+00 -0.8491517E-01
  0.1836735E+00  0.0000000E+00  0.1020408E+00  0.2390757E-04  0.0000000E+00 -0.8490284E-01
  0.2244898E+00  0.0000000E+00  0.1020408E+00  0.2834108E-04  0.0000000E+00 -0.8488783E-01
  0.2653061E+00  0.0000000E+00  0.1020408E+00  0.3225897E-04  0.0000000E+00 -0.8487043E-01
  0.3061225E+00  0.0000000E+00  0.1020408E+00  0.3557871E-04  0.0000000E+00 -0.8485093E-01
  0.3469388E+00  0.0000000E+00  0.1020408E+00  0.3822442E-04  0.0000000E+00 -0.8482971E-01
  0.3877551E+00  0.0000000E+00  0.1020408E+00  0.4012859E-04  0.0000000E+00 -0.8480716E-01
  0.4285714E+00  0.0000000E+00  0.1020408E+00  0.4123361E-04  0.0000000E+00 -0.8478374E-01
  0.4693878E+00  0.0000000E+00  0.1020408E+00  0.4149360E-04  0.0000000E+00 -0.8475990E-01
  0.5102041E+00  0.0000000E+00  0.1020408E+00  0.4087607E-04  0.0000000E+00 -0.8473614E-01
  0.5510204E+00  0.0000000E+00  0.1020408E+00  0.3936365E-04  0.0000000E+00 -0.8471298E-01
  0.5918368E+00  0.0000000E+00  0.1020408E+00  0.3695689E-04  0.0000000E+00 -0.8469093E-01
  0.6326531E+00  0.0000000E+00  0.1020408E+00  0.3368203E-04  0.0000000E+00 -0.8467052E-01
  0.6734694E+00  0.0000000E+00  0.1020408E+00  0.2961316E-04  0.0000000E+00 -0.8465224E-01
  0.7142857E+00  0.0000000E+00  0.1020408E+00  0.2490542E-04  0.0000000E+00 -0.8463650E-01
  0.7551020E+00  0.0000000E+00  0.1020408E+00  0.1964813E-04  0.0000000E+00 -0.8462361E-01
  0.7959183E+00  0.0000000E+00  0.1020408E+00  0.1390394E-04  0.0000000E+00 -0.8461388E-01
  0.8367347E+00  0.0000000E+00  0.1020408E+00  0.7743950E-05  0.0000000E+00 -0.8460755E-01
  0.8775510E+00  0.0000000E+00  0.1020408E+00  0.1288962E-05  0.0000000E+00 -0.8460489E-01
  0.9183673E+00  0.0000000E+00  0.1020408E+00 -0.5232723E-05  0.0000000E+00 -0.8460598E-01
  0.9591837E+00  0.0000000E+00  0.1020408E+00 -0.1168183E-04  0.0000000E+00 -0.8461080E-01
  0.1000000E+01  0.0000000E+00  0.1020408E+00 -0.1795623E-04  0.0000000E+00 -0.8461927E-01
  0.1040816E+01  0.0000000E+00  0.1020408E+00 -0.2396399E-04  0.0000000E+00 -0.8463124E-01
  0.1081633E+01  0.0000000E+00  0.1020408E+00 -0.2961741E-04  0.0000000E+00 -0.8464655E-01
  0.1122449E+01  0.0000000E+00  0.1020408E+00 -0.3483503E-04  0.0000000E+00 -0.8466496E-01
  0.1163265E+01  0.0000000E+00  0.1020408E+00 -0.3954298E-04  0.0000000E+00 -0.8468621E-01
  0.1204082E+01  0.0000000E+00  0.1020408E+00 -0.4367579E-04  0.0000000E+00 -0.8470998E-01
  0.1244898E+01  0.0000000E+00  0.1020408E+00 -0.4717925E-04  0.0000000E+00 -0.8473592E-01
  0.1285714E+01  0.0000000E+00  0.1020408E+00 -0.5001087E-04  0.0000000E+00 -0.8476367E-01
  0.1326531E+01  0.0000000E+00  0.1020408E+00 -0.5213968E-04  0.0000000E+00 -0.8479283E-01
  0.1367347E+01  0.0000000E+00  0.1020408E+00 -0.5354645E-04  0.0000000E+00 -0.8482299E-01
  0.1408163E+01  0.0000000E+00  0.1020408E+00 -0.5422332E-04  0.0000000E+00 -0.8485374E-01
  0.1448980E+01  0.0000000E+00  0.1020408E+00 -0.5417304E-04  0.0000000E+00 -0.8488466E-01
  0.1489796E+01  0.0000000E+00  0.1020408E+00 -0.5340836E-04  0.0000000E+00 -0.8491534E-01
  0.1530612E+01  0.0000000E+00  0.1020408E+00 -0.5195143E-04  0.0000000E+00 -0.8494538E-01
  0.1571429E+01  0.0000000E+00  0.1020408E+00 -0.4983268E-04  0.0000000E+00 -0.8497439E-01
  0.1612245E+01  0.0000000E+00  0.1020408E+00 -0.4708977E-04  0.0000000E+00 -0.8500201E-01
  0.1653061E+01  0.0000000E+00  0.1020408E+00 -0.4376671E-04  0.0000000E+00 -0.8502790E-01
  0.1693878E+01  0.0000000E+00  0.1020408E+00 -0.3991292E-04  0.0000000E+00 -0.8505173E-01
  0.1734694E+01  0.0000000E+00  0.1020408E+00 -0.3558225E-04  0.0000000E+00 -0.8507323E-01
  0.1775510E+01  0.0000000E+00  0.1020408E+00 -0.3083216E-04  0.0000000E+00 -0.8509214E-01
  0.1816326E+01  0.0000000E+00  0.1020408E+00 -0.2572305E-04  0.0000000E+00 -0.8510825E-01
  0.1857143E+01  0.0000000E+00  0.1020408E+00 -0.2031742E-04  0.0000000E+00 -0.8512135E-01
  0.1897959E+01  0.0000000E+00  0.1020408E+00 -0.1467955E-04  0.0000000E+00 -0.8513131E-01
  0.1938776E+01  0.0000000E+00  0.1020408E+00 -0.8875200E-05  0.0000000E+00 -0.8513802E-01
  0.1989796E+01  0.0000000E+00  0.1020408E+00 -0.2970436E-05  0.0000000E+00 -0.8514139E-01
  0.2040816E-01  0.0000000E+00  0.1428571E+00  0.3649368E-05  0.0000000E+00 -0.8494069E-01
  0.6122449E-01  0.0000000E+00  0.1428571E+00  0.1088495E-04  0.0000000E+00 -0.8493736E-01
  0.1020408E+00  0.0000000E+00  0.1428571E+00  0.1793220E-04  0.0000000E+00 -0.8493075E-01
  0.1428571E+00  0.0000000E+00  0.1428571E+00  0.2466823E-04  0.0000000E+00 -0.8492098E-01
  0.1836735E+00  0.0000000E+00  0.1428571E+00  0.3097181E-04  0.0000000E+00 -0.8490821E-01
  0.2244898E+00  0.0000000E+00  0.1428571E+00  0.3672526E-04  0.0000000E+00 -0.8489266E-01
  0.2653061E+00  0.0000000E+00  0.1428571E+00  0.4181564E-04  0.0000000E+00 -0.8487461E-01
  0.3061225E+00  0.0000000E+00  0.1428571E+00  0.4613613E-04  0.0000000E+00 -0.8485438E-01
  0.3469388E+00  0.0000000E+00  0.1428571E+00  0.4958816E-04  0.0000000E+00 -0.8483234E-01
  0.3877551E+00  0.0000000E+00  0.1428571E+00  0.5208357E-04  0.0000000E+00 -0.8480891E-01
  0.4285714E+00  0.0000000E+00  0.1428571E+00  0.5354680E-04  0.0000000E+00 -0.8478453E-01
  0.4693878E+00  0.0000000E+00  0.1428571E+00  0.5391719E-04  0.0000000E+00 -0.8475970E-01
  0.5102041E+00  0.0000000E+00  0.1428571E+00  0.5315102E-04  0.0000000E+00 -0.8473492E-01
  0.5510204E+00  0.0000000E+00  0.1428571E+00  0.5122236E-04  0.0000000E+00 -0.8471072E-01
  0.5918368E+00  0.0000000E+00  0.1428571E+00  0.4812232E-04  0.0000000E+00 -0.8468765E-01
  0.6326531E+00  0.0000000E+00  0.1428571E+00  0.4386083E-04  0.0000000E+00 -0.8466626E-01
  0.6734694E+00  0.0000000E+00  0.1428571E+00  0.3850260E-04  0.0000000E+00 -0.8464715E-01
  0.7142857E+00  0.0000000E+00  0.1428571E+00  0.3239596E-04  0.0000000E+00 -0.8463074E-01
  0.7551020E+00  0.0000000E+00  0.1428571E+00  0.2561766E-04  0.0000000E+00 -0.8461726E-01
  0.7959183E+00  0.0000000E+00  0.1428571E+00  0.1820819E-04  0.0000000E+00 -0.8460700E-01
  0.8367347E+00  0.0000000E+00  0.1428571E+00  0.1021276E-04  0.0000000E+00 -0.8460025E-01
  0.8775510E+00  0.0000000E+00  0.1428571E+00  0.1730373E-05  0.0000000E+00 -0.8459737E-01
  0.9183673E+00  0.0000000E+00  0.1428571E+00 -0.6747383E-05  0.0000000E+00 -0.8459848E-01
  0.9591837E+00  0.0000000E+00  0.1428571E+00 -0.1508971E-04  0.0000000E+00 -0.8460345E-01
  0.1000000E+01  0.0000000E+00  0.1428571E+00 -0.2319515E-04  0.0000000E+00 -0.8461218E-01
  0.1040816E+01  0.0000000E+00  0.1428571E+00 -0.3095406E-04  0.0000000E+00 -0.8462451E-01
  0.1081633E+01  0.0000000E+00  0.1428571E+00 -0.3825454E-04  0.0000000E+00 -0.8464028E-01
  0.1122449E+01  0.0000000E+00  0.1428571E+00 -0.4499055E-04  0.0000000E+00 -0.8465924E-01
  0.1163265E+01  0.0000000E+00  0.1428571E+00 -0.5106587E-04  0.0000000E+00 -0.8468111E-01
  0.1204082E+01  0.0000000E+00  0.1428571E+00 -0.5639563E-04  0.0000000E+00 -0.8470558E-01
  0.1244898E+01  0.0000000E+00  0.1428571E+00 -0.6090983E-04  0.0000000E+00 -0.8473228E-01
  0.1285714E+01  0.0000000E+00  0.1428571E+00 -0.6455400E-04  0.0000000E+00 -0.8476082E-01
  0.1326531E+01  0.0000000E+00  0.1428571E+00 -0.6728878E-04  0.0000000E+00 -0.8479080E-01
  0.1367347E+01  0.0000000E+00  0.1428571E+00 -0.6908999E-04  0.0000000E+00 -0.8482180E-01
  0.1408163E+01  0.0000000E+00  0.1428571E+00 -0.6994839E-04  0.0000000E+00 -0.8485339E-01
  0.1448980E+01  0.0000000E+00  0.1428571E+00 -0.6986849E-04  0.0000000E+00 -0.8488514E-01
  0.1489796E+01  0.0000000E+00  0.1428571E+00 -0.6886754E-04  0.0000000E+00 -0.8491663E-01
  0.1530612E+01  0.0000000E+00  0.1428571E+00 -0.6697474E-04  0.0000000E+00 -0.8494745E-01
  0.1571429E+01  0.0000000E+00  0.1428571E+00 -0.6423002E-04  0.0000000E+00 -0.8497720E-01
  0.1612245E+01  0.0000000E+00  0.1428571E+00 -0.6068264E-04  0.0000000E+00 -0.8500552E-01
  0.1653061E+01  0.0000000E+00  0.1428571E+00 -0.5638987E-04  0.0000000E+00 -0.8503204E-01
  0.1693878E+01  0.0000000E+00  0.1428571E+00 -0.5141576E-04  0.0000000E+00 -0.8505646E-01
  0.1734694E+01  0.0000000E+00  0.1428571E+00 -0.4582993E-04  0.0000000E+00 -0.8507847E-01
  0.1775510E+01  0.0000000E+00  0.1428571E+00 -0.3970641E-04  0.0000000E+00 -0.8509783E-01
  0.1816326E+01  0.0000000E+00  0.1428571E+00 -0.3312289E-04  0.0000000E+00 -0.8511431E-01
  0.1857143E+01  0.0000000E+00  0.1428571E+00 -0.2615969E-04  0.0000000E+00 -0.8512772E-01
  0.1897959E+01  0.0000000E+00  0.1428571E+00 -0.1889929E-04  0.0000000E+00 -0.8513791E-01
  0.1938776E+01  0.0000000E+00  0.1428571E+00 -0.1142577E-04  0.0000000E+00 -0.8514477E-01
  0.1989796E+01  0.0000000E+00  0.1428571E+00 -0.3823686E-05  0.0000000E+00 -0.8514822E-01
  0.2040816E-01  0.0000000E+00  0.1836735E+00  0.4412689E-05  0.0000000E+00 -0.8494874E-01
  0.6122449E-01  0.0000000E+00  0.1836735E+00  0.1316263E-04  0.0000000E+00 -0.8494527E-01
  0.1020408E+00  0.0000000E+00  0.1836735E+00  0.2168772E-04  0.0000000E+00 -0.8493839E-01
  0.1428571E+00  0.0000000E+00  0.1836735E+00  0.2984081E-04  0.0000000E+00 -0.8492821E-01
  0.1836735E+00  0.0000000E+00  0.1836735E+00  0.3747674E-04  0.0000000E+00 -0.8491489E-01
  0.2244898E+00  0.0000000E+00  0.1836735E+00  0.4445417E-04  0.0000000E+00 -0.8489867E-01
  0.2653061E+00  0.0000000E+00  0.1836735E+00  0.5063700E-04  0.0000000E+00 -0.8487983E-01
  0.3061225E+00  0.0000000E+00  0.1836735E+00  0.5589616E-04  0.0000000E+00 -0.8485870E-01
  0.3469388E+00  0.0000000E+00  0.1836735E+00  0.6011189E-04  0.0000000E+00 -0.8483565E-01
  0.3877551E+00  0.0000000E+00  0.1836735E+00  0.6317641E-04  0.0000000E+00 -0.8481112E-01
  0.4285714E+00  0.0000000E+00  0.1836735E+00  0.6499679E-04  0.0000000E+00 -0.8478556E-01
  0.4693878E+00  0.0000000E+00  0.1836735E+00  0.6549811E-04  0.0000000E+00 -0.8475950E-01
  0.5102041E+00  0.0000000E+00  0.1836735E+00  0.6462640E-04  0.0000000E+00 -0.8473344E-01
  0.5510204E+00  0.0000000E+00  0.1836735E+00  0.6234932E-04  0.0000000E+00 -0.8470794E-01
  0.5918368E+00  0.0000000E+00  0.1836735E+00  0.5864889E-04  0.0000000E+00 -0.8468356E-01
  0.6326531E+00  0.0000000E+00  0.1836735E+00  0.5349064E-04  0.0000000E+00 -0.8466089E-01
  0.6734694E+00  0.0000000E+00  0.1836735E+00  0.4673050E-04  0.0000000E+00 -0.8464076E-01
  0.7142857E+00  0.0000000E+00  0.1836735E+00  0.3936452E-04  0.0000000E+00 -0.8462360E-01
  0.7551020E+00  0.0000000E+00  0.1836735E+00  0.3125260E-04  0.0000000E+00 -0.8460942E-01
  0.7959183E+00  0.0000000E+00  0.1836735E+00  0.2238232E-04  0.0000000E+00 -0.8459846E-01
  0.8367347E+00  0.0000000E+00  0.1836735E+00  0.1273648E-04  0.0000000E+00 -0.8459107E-01
  0.8775510E+00  0.0000000E+00  0.1836735E+00  0.2098467E-05  0.0000000E+00 -0.8458792E-01
  0.9183673E+00  0.0000000E+00  0.1836735E+00 -0.8160385E-05  0.0000000E+00 -0.8458915E-01
  0.9591837E+00  0.0000000E+00  0.1836735E+00 -0.1820633E-04  0.0000000E+00 -0.8459435E-01
  0.1000000E+01  0.0000000E+00  0.1836735E+00 -0.2797011E-04  0.0000000E+00 -0.8460340E-01
  0.1040816E+01  0.0000000E+00  0.1836735E+00 -0.3732121E-04  0.0000000E+00 -0.8461618E-01
  0.1081633E+01  0.0000000E+00  0.1836735E+00 -0.4612045E-04  0.0000000E+00 -0.8463251E-01
  0.1122449E+01  0.0000000E+00  0.1836735E+00 -0.5423689E-04  0.0000000E+00 -0.8465215E-01
  0.1163265E+01  0.0000000E+00  0.1836735E+00 -0.6155302E-04  0.0000000E+00 -0.8467481E-01
  0.1204082E+01  0.0000000E+00  0.1836735E+00 -0.6796594E-04  0.0000000E+00 -0.8470014E-01
  0.1244898E+01  0.0000000E+00  0.1836735E+00 -0.7339109E-04  0.0000000E+00 -0.8472777E-01
  0.1285714E+01  0.0000000E+00  0.1836735E+00 -0.7776345E-04  0.0000000E+00 -0.8475730E-01
  0.1326531E+01  0.0000000E+00  0.1836735E+00 -0.8103685E-04  0.0000000E+00 -0.8478830E-01
  0.1367347E+01  0.0000000E+00  0.1836735E+00 -0.8318345E-04  0.0000000E+00 -0.8482034E-01
  0.1408163E+01  0.0000000E+00  0.1836735E+00 -0.8419335E-04  0.0000000E+00 -0.8485297E-01
  0.1448980E+01  0.0000000E+00  0.1836735E+00 -0.8407337E-04  0.0000000E+00 -0.8488575E-01
  0.1489796E+01  0.0000000E+00  0.1836735E+00 -0.8284560E-04  0.0000000E+00 -0.8491824E-01
  0.1530612E+01  0.0000000E+00  0.1836735E+00 -0.8054628E-04  0.0000000E+00 -0.8495003E-01
  0.1571429E+01  0.0000000E+00  0.1836735E+00 -0.7722450E-04  0.0000000E+00 -0.8498069E-01
  0.1612245E+01  0.0000000E+00  0.1836735E+00 -0.7294052E-04  0.0000000E+00 -0.8500986E-01
  0.1653061E+01  0.0000000E+00  0.1836735E+00 -0.6776405E-04  0.0000000E+00 -0.8503717E-01
  0.1693878E+01  0.0000000E+00  0.1836735E+00 -0.6177273E-04  0.0000000E+00 -0.8506230E-01
  0.1734694E+01  0.0000000E+00  0.1836735E+00 -0.5505057E-04  0.0000000E+00 -0.8508495E-01
  0.1775510E+01  0.0000000E+00  0.1836735E+00 -0.4768660E-04  0.0000000E+00 -0.8510486E-01
  0.1816326E+01  0.0000000E+00  0.1836735E+00 -0.3977385E-04  0.0000000E+00 -0.8512180E-01
  0.1857143E+01  0.0000000E+00  0.1836735E+00 -0.3140854E-04  0.0000000E+00 -0.8513559E-01
  0.1897959E+01  0.0000000E+00  0.1836735E+00 -0.2268927E-04  0.0000000E+00 -0.8514606E-01
  0.1938776E+01  0.0000000E+00  0.1836735E+00 -0.1371610E-04  0.0000000E+00 -0.8515311E-01
  0.1989796E+01  0.0000000E+00  0.1836735E+00 -0.4589777E-05  0.0000000E+00 -0.8515665E-01
  0.2040816E-01  0.0000000E+00  0.2244898E+00  0.5135324E-05  0.0000000E+00 -0.8495826E-01
  0.6122449E-01  0.0000000E+00  0.2244898E+00  0.1531951E-04  0.0000000E+00 -0.8495463E-01
  0.1020408E+00  0.0000000E+00  0.2244898E+00  0.2524602E-04  0.0000000E+00 -0.8494743E-01
  0.1428571E+00  0.0000000E+00  0.2244898E+00  0.3474581E-04  0.0000000E+00 -0.8493676E-01
  0.1836735E+00  0.0000000E+00  0.2244898E+00  0.4365190E-04  0.0000000E+00 -0.8492282E-01
  0.2244898E+00  0.0000000E+00  0.2244898E+00  0.5180122E-04  0.0000000E+00 -0.8490581E-01
  0.2653061E+00  0.0000000E+00  0.2244898E+00  0.5903617E-04  0.0000000E+00 -0.8488605E-01
  0.3061225E+00  0.0000000E+00  0.2244898E+00  0.6520658E-04  0.0000000E+00 -0.8486385E-01
  0.3469388E+00  0.0000000E+00  0.2244898E+00  0.7017224E-04  0.0000000E+00 -0.8483961E-01
  0.3877551E+00  0.0000000E+00  0.2244898E+00  0.7380592E-04  0.0000000E+00 -0.8481378E-01
  0.4285714E+00  0.0000000E+00  0.2244898E+00  0.7599698E-04  0.0000000E+00 -0.8478684E-01
  0.4693878E+00  0.0000000E+00  0.2244898E+00  0.7665574E-04  0.0000000E+00 -0.8475932E-01
  0.5102041E+00  0.0000000E+00  0.2244898E+00  0.7571889E-04  0.0000000E+00 -0.8473176E-01
  0.5510204E+00  0.0000000E+00  0.2244898E+00  0.7315501E-04  0.0000000E+00 -0.8470473E-01
  0.5918368E+00  0.0000000E+00  0.2244898E+00  0.6896600E-04  0.0000000E+00 -0.8467878E-01
  0.6326531E+00  0.0000000E+00  0.2244898E+00  0.6316374E-04  0.0000000E+00 -0.8465433E-01
  0.6734694E+00  0.0000000E+00  0.2244898E+00  0.5433376E-04  0.0000000E+00 -0.8463301E-01
  0.7142857E+00  0.0000000E+00  0.2244898E+00  0.4600694E-04  0.0000000E+00 -0.8461525E-01
  0.7551020E+00  0.0000000E+00  0.2244898E+00  0.3675400E-04  0.0000000E+00 -0.8460027E-01
  0.7959183E+00  0.0000000E+00  0.2244898E+00  0.2663725E-04  0.0000000E+00 -0.8458847E-01
  0.8367347E+00  0.0000000E+00  0.2244898E+00  0.1576152E-04  0.0000000E+00 -0.8457995E-01
  0.8775510E+00  0.0000000E+00  0.2244898E+00  0.2079490E-05  0.0000000E+00 -0.8457646E-01
  0.9183673E+00  0.0000000E+00  0.2244898E+00 -0.9564972E-05  0.0000000E+00 -0.8457817E-01
  0.9591837E+00  0.0000000E+00  0.2244898E+00 -0.2114003E-04  0.0000000E+00 -0.8458364E-01
  0.1000000E+01  0.0000000E+00  0.2244898E+00 -0.3244754E-04  0.0000000E+00 -0.8459306E-01
  0.1040816E+01  0.0000000E+00  0.2244898E+00 -0.4329272E-04  0.0000000E+00 -0.8460636E-01
  0.1081633E+01  0.0000000E+00  0.2244898E+00 -0.5349881E-04  0.0000000E+00 -0.8462336E-01
  0.1122449E+01  0.0000000E+00  0.2244898E+00 -0.6290849E-04  0.0000000E+00 -0.8464381E-01
  0.1163265E+01  0.0000000E+00  0.2244898E+00 -0.7138371E-04  0.0000000E+00 -0.8466739E-01
  0.1204082E+01  0.0000000E+00  0.2244898E+00 -0.7880466E-04  0.0000000E+00 -0.8469374E-01
  0.1244898E+01  0.0000000E+00  0.2244898E+00 -0.8507307E-04  0.0000000E+00 -0.8472248E-01
  0.1285714E+01  0.0000000E+00  0.2244898E+00 -0.9011433E-04  0.0000000E+00 -0.8475318E-01
  0.1326531E+01  0.0000000E+00  0.2244898E+00 -0.9387690E-04  0.0000000E+00 -0.8478539E-01
  0.1367347E+01  0.0000000E+00  0.2244898E+00 -0.9633081E-04  0.0000000E+00 -0.8481865E-01
  0.1408163E+01  0.0000000E+00  0.2244898E+00 -0.9746646E-04  0.0000000E+00 -0.8485251E-01
  0.1448980E+01  0.0000000E+00  0.2244898E+00 -0.9729347E-04  0.0000000E+00 -0.8488650E-01
  0.1489796E+01  0.0000000E+00  0.2244898E+00 -0.9583914E-04  0.0000000E+00 -0.8492017E-01
  0.1530612E+01  0.0000000E+00  0.2244898E+00 -0.9314713E-04  0.0000000E+00 -0.8495309E-01
  0.1571429E+01  0.0000000E+00  0.2244898E+00 -0.8927572E-04  0.0000000E+00 -0.8498482E-01
  0.1612245E+01  0.0000000E+00  0.2244898E+00 -0.8429606E-04  0.0000000E+00 -0.8501499E-01
  0.1653061E+01  0.0000000E+00  0.2244898E+00 -0.7828999E-04  0.0000000E+00 -0.8504323E-01
  0.1693878E+01  0.0000000E+00  0.2244898E+00 -0.7134810E-04  0.0000000E+00 -0.8506919E-01
  0.1734694E+01  0.0000000E+00  0.2244898E+00 -0.6356800E-04  0.0000000E+00 -0.8509258E-01
  0.1775510E+01  0.0000000E+00  0.2244898E+00 -0.5505261E-04  0.0000000E+00 -0.8511313E-01
  0.1816326E+01  0.0000000E+00  0.2244898E+00 -0.4590902E-04  0.0000000E+00 -0.8513061E-01
  0.1857143E+01  0.0000000E+00  0.2244898E+00 -0.3624777E-04  0.0000000E+00 -0.8514482E-01
  0.1897959E+01  0.0000000E+00  0.2244898E+00 -0.2618207E-04  0.0000000E+00 -0.8515562E-01
  0.1938776E+01  0.0000000E+00  0.2244898E+00 -0.1582629E-04  0.0000000E+00 -0.8516289E-01
  0.1989796E+01  0.0000000E+00  0.2244898E+00 -0.5295547E-05  0.0000000E+00 -0.8516654E-01
  0.2040816E-01  0.0000000E+00  0.2653061E+00  0.5835266E-05  0.0000000E+00 -0.8496919E-01
  0.6122449E-01  0.0000000E+00  0.2653061E+00  0.1740935E-04  0.0000000E+00 -0.8496538E-01
  0.1020408E+00  0.0000000E+00  0.2653061E+00  0.2869594E-04  0.0000000E+00 -0.8495781E-01
  0.1428571E+00  0.0000000E+00  0.2653061E+00  0.3950593E-04  0.0000000E+00 -0.8494661E-01
  0.1836735E+00  0.0000000E+00  0.2653061E+00  0.4965225E-04  0.0000000E+00 -0.8493194E-01
  0.2244898E+00  0.0000000E+00  0.2653061E+00  0.5895156E-04  0.0000000E+00 -0.8491405E-01
  0.2653061E+00  0.0000000E+00  0.2653061E+00  0.6722587E-04  0.0000000E+00 -0.8489323E-01
  0.3061225E+00  0.0000000E+00  0.2653061E+00  0.7430468E-04  0.0000000E+00 -0.8486982E-01
  0.3469388E+00  0.0000000E+00  0.2653061E+00  0.8002751E-04  0.0000000E+00 -0.8484424E-01
  0.3877551E+00  0.0000000E+00  0.2653061E+00  0.8424723E-04  0.0000000E+00 -0.8481693E-01
  0.4285714E+00  0.0000000E+00  0.2653061E+00  0.8683405E-04  0.0000000E+00 -0.8478840E-01
  0.4693878E+00  0.0000000E+00  0.2653061E+00  0.8768094E-04  0.0000000E+00 -0.8475920E-01
  0.5102041E+00  0.0000000E+00  0.2653061E+00  0.8671160E-04  0.0000000E+00 -0.8472992E-01
  0.5510204E+00  0.0000000E+00  0.2653061E+00  0.8389395E-04  0.0000000E+00 -0.8470117E-01
  0.5918368E+00  0.0000000E+00  0.2653061E+00  0.7926664E-04  0.0000000E+00 -0.8467355E-01
  0.6326531E+00  0.0000000E+00  0.2653061E+00  0.7299712E-04  0.0000000E+00 -0.8464754E-01
  0.6734694E+00  0.0000000E+00  0.2653061E+00  0.6160963E-04  0.0000000E+00 -0.8462489E-01
  0.7142857E+00  0.0000000E+00  0.2653061E+00  0.5255230E-04  0.0000000E+00 -0.8460600E-01
  0.7551020E+00  0.0000000E+00  0.2653061E+00  0.4224893E-04  0.0000000E+00 -0.8459003E-01
  0.7959183E+00  0.0000000E+00  0.2653061E+00  0.3095256E-04  0.0000000E+00 -0.8457745E-01
  0.8367347E+00  0.0000000E+00  0.2653061E+00  0.1896469E-04  0.0000000E+00 -0.8456858E-01
  0.8775510E+00  0.0000000E+00  0.2653061E+00  0.2120173E-05  0.0000000E+00 -0.8456466E-01
  0.9183673E+00  0.0000000E+00  0.2653061E+00 -0.1083841E-04  0.0000000E+00 -0.8456592E-01
  0.9591837E+00  0.0000000E+00  0.2653061E+00 -0.2391508E-04  0.0000000E+00 -0.8457146E-01
  0.1000000E+01  0.0000000E+00  0.2653061E+00 -0.3673078E-04  0.0000000E+00 -0.8458124E-01
  0.1040816E+01  0.0000000E+00  0.2653061E+00 -0.4902449E-04  0.0000000E+00 -0.8459513E-01
  0.1081633E+01  0.0000000E+00  0.2653061E+00 -0.6058702E-04  0.0000000E+00 -0.8461290E-01
  0.1122449E+01  0.0000000E+00  0.2653061E+00 -0.7123829E-04  0.0000000E+00 -0.8463427E-01
  0.1163265E+01  0.0000000E+00  0.2653061E+00 -0.8082184E-04  0.0000000E+00 -0.8465892E-01
  0.1204082E+01  0.0000000E+00  0.2653061E+00 -0.8920218E-04  0.0000000E+00 -0.8468646E-01
  0.1244898E+01  0.0000000E+00  0.2653061E+00 -0.9626764E-04  0.0000000E+00 -0.8471647E-01
  0.1285714E+01  0.0000000E+00  0.2653061E+00 -0.1019348E-03  0.0000000E+00 -0.8474851E-01
  0.1326531E+01  0.0000000E+00  0.2653061E+00 -0.1061483E-03  0.0000000E+00 -0.8478210E-01