title = "dataset feddes"
variables = "x", "y", "z", "vx", "vy", "vz"
zone t = "velocities, solution time =  4.000E+00 days        " i =   49, j =   49, k =    1,  f=point
  0.2040816E-01  0.0000000E+00  0.2040816E-01 -0.6797538E-09  0.0000000E+00 -0.5630778E-01
  0.6122449E-01  0.0000000E+00  0.2040816E-01 -0.2351153E-10  0.0000000E+00 -0.5630778E-01
  0.1020408E+00  0.0000000E+00  0.2040816E-01  0.1064721E-09  0.0000000E+00 -0.5630778E-01
  0.1428571E+00  0.0000000E+00  0.2040816E-01 -0.1570150E-09  0.0000000E+00 -0.5630778E-01
  0.1836735E+00  0.0000000E+00  0.2040816E-01 -0.2643566E-09  0.0000000E+00 -0.5630778E-01
  0.2244898E+00  0.0000000E+00  0.2040816E-01 -0.5013993E-10  0.0000000E+00 -0.5630778E-01
  0.2653061E+00  0.0000000E+00  0.2040816E-01 -0.1563414E-09  0.0000000E+00 -0.5630778E-01
  0.3061225E+00  0.0000000E+00  0.2040816E-01 -0.3074263E-09  0.0000000E+00 -0.5630778E-01
  0.3469388E+00  0.0000000E+00  0.2040816E-01 -0.3599746E-09  0.0000000E+00 -0.5630778E-01
  0.3877551E+00  0.0000000E+00  0.2040816E-01 -0.5420755E-09  0.0000000E+00 -0.5630778E-01
  0.4285714E+00  0.0000000E+00  0.2040816E-01 -0.8590413E-09  0.0000000E+00 -0.5630778E-01
  0.4693878E+00  0.0000000E+00  0.2040816E-01 -0.1044137E-08  0.0000000E+00 -0.5630779E-01
  0.5102041E+00  0.0000000E+00  0.2040816E-01 -0.9807850E-09  0.0000000E+00 -0.5630779E-01
  0.5510204E+00  0.0000000E+00  0.2040816E-01 -0.9550420E-09  0.0000000E+00 -0.5630779E-01
  0.5918368E+00  0.0000000E+00  0.2040816E-01 -0.1075164E-08  0.0000000E+00 -0.5630779E-01
  0.6326531E+00  0.0000000E+00  0.2040816E-01 -0.1207968E-08  0.0000000E+00 -0.5630780E-01
  0.6734694E+00  0.0000000E+00  0.2040816E-01 -0.1132216E-08  0.0000000E+00 -0.5630780E-01
  0.7142857E+00  0.0000000E+00  0.2040816E-01 -0.8984002E-09  0.0000000E+00 -0.5630780E-01
  0.7551020E+00  0.0000000E+00  0.2040816E-01 -0.8219064E-09  0.0000000E+00 -0.5630780E-01
  0.7959183E+00  0.0000000E+00  0.2040816E-01 -0.8478064E-09  0.0000000E+00 -0.5630780E-01
  0.8367347E+00  0.0000000E+00  0.2040816E-01 -0.7234270E-09  0.0000000E+00 -0.5630781E-01
  0.8775510E+00  0.0000000E+00  0.2040816E-01 -0.4829032E-09  0.0000000E+00 -0.5630781E-01
  0.9183673E+00  0.0000000E+00  0.2040816E-01 -0.2911563E-09  0.0000000E+00 -0.5630781E-01
  0.9591837E+00  0.0000000E+00  0.2040816E-01 -0.2175531E-09  0.0000000E+00 -0.5630781E-01
  0.1000000E+01  0.0000000E+00  0.2040816E-01 -0.1892279E-09  0.0000000E+00 -0.5630781E-01
  0.1040816E+01  0.0000000E+00  0.2040816E-01  0.7223565E-10  0.0000000E+00 -0.5630781E-01
  0.1081633E+01  0.0000000E+00  0.2040816E-01  0.4349964E-09  0.0000000E+00 -0.5630781E-01
  0.1122449E+01  0.0000000E+00  0.2040816E-01  0.4687901E-09  0.0000000E+00 -0.5630781E-01
  0.1163265E+01  0.0000000E+00  0.2040816E-01  0.1765582E-09  0.0000000E+00 -0.5630781E-01
  0.1204082E+01  0.0000000E+00  0.2040816E-01 -0.1326860E-09  0.0000000E+00 -0.5630781E-01
  0.1244898E+01  0.0000000E+00  0.2040816E-01  0.2326630E-09  0.0000000E+00 -0.5630781E-01
  0.1285714E+01  0.0000000E+00  0.2040816E-01  0.7694347E-09  0.0000000E+00 -0.5630781E-01
  0.1326531E+01  0.0000000E+00  0.2040816E-01  0.7438729E-09  0.0000000E+00 -0.5630780E-01
  0.1367347E+01  0.0000000E+00  0.2040816E-01  0.7349810E-09  0.0000000E+00 -0.5630780E-01
  0.1408163E+01  0.0000000E+00  0.2040816E-01  0.7862792E-09  0.0000000E+00 -0.5630780E-01
  0.1448980E+01  0.0000000E+00  0.2040816E-01  0.8342454E-09  0.0000000E+00 -0.5630780E-01
  0.1489796E+01  0.0000000E+00  0.2040816E-01  0.8481115E-09  0.0000000E+00 -0.5630780E-01
  0.1530612E+01  0.0000000E+00  0.2040816E-01  0.8423947E-09  0.0000000E+00 -0.5630780E-01
  0.1571429E+01  0.0000000E+00  0.2040816E-01  0.7464598E-09  0.0000000E+00 -0.5630779E-01
  0.1612245E+01  0.0000000E+00  0.2040816E-01  0.6096478E-09  0.0000000E+00 -0.5630779E-01
  0.1653061E+01  0.0000000E+00  0.2040816E-01  0.4806253E-09  0.0000000E+00 -0.5630779E-01
  0.1693878E+01  0.0000000E+00  0.2040816E-01  0.3128760E-09  0.0000000E+00 -0.5630779E-01
  0.1734694E+01  0.0000000E+00  0.2040816E-01  0.1237388E-09  0.0000000E+00 -0.5630779E-01
  0.1775510E+01  0.0000000E+00  0.2040816E-01 -0.7875351E-10  0.0000000E+00 -0.5630779E-01
  0.1816326E+01  0.0000000E+00  0.2040816E-01 -0.1825945E-09  0.0000000E+00 -0.5630779E-01
  0.1857143E+01  0.0000000E+00  0.2040816E-01 -0.2356115E-09  0.0000000E+00 -0.5630779E-01
  0.1897959E+01  0.0000000E+00  0.2040816E-01 -0.6362677E-09  0.0000000E+00 -0.5630779E-01
  0.1938776E+01  0.0000000E+00  0.2040816E-01 -0.1229973E-08  0.0000000E+00 -0.5630779E-01
  0.1989796E+01  0.0000000E+00  0.2040816E-01 -0.1094631E-08  0.0000000E+00 -0.5630780E-01
  0.2040816E-01  0.0000000E+00  0.6122449E-01 -0.1557436E-08  0.0000000E+00 -0.5633730E-01
  0.6122449E-01  0.0000000E+00  0.6122449E-01 -0.3616981E-10  0.0000000E+00 -0.5633730E-01
  0.1020408E+00  0.0000000E+00  0.6122449E-01  0.2173229E-09  0.0000000E+00 -0.5633730E-01
  0.1428571E+00  0.0000000E+00  0.6122449E-01 -0.4441386E-09  0.0000000E+00 -0.5633730E-01
  0.1836735E+00  0.0000000E+00  0.6122449E-01 -0.4881517E-09  0.0000000E+00 -0.5633730E-01
  0.2244898E+00  0.0000000E+00  0.6122449E-01 -0.1127820E-10  0.0000000E+00 -0.5633730E-01
  0.2653061E+00  0.0000000E+00  0.6122449E-01 -0.3348927E-09  0.0000000E+00 -0.5633730E-01
  0.3061225E+00  0.0000000E+00  0.6122449E-01 -0.9883277E-09  0.0000000E+00 -0.5633730E-01
  0.3469388E+00  0.0000000E+00  0.6122449E-01 -0.1255657E-08  0.0000000E+00 -0.5633730E-01
  0.3877551E+00  0.0000000E+00  0.6122449E-01 -0.1492997E-08  0.0000000E+00 -0.5633730E-01
  0.4285714E+00  0.0000000E+00  0.6122449E-01 -0.2136930E-08  0.0000000E+00 -0.5633730E-01
  0.4693878E+00  0.0000000E+00  0.6122449E-01 -0.2862024E-08  0.0000000E+00 -0.5633731E-01
  0.5102041E+00  0.0000000E+00  0.6122449E-01 -0.2940176E-08  0.0000000E+00 -0.5633731E-01
  0.5510204E+00  0.0000000E+00  0.6122449E-01 -0.2723547E-08  0.0000000E+00 -0.5633731E-01
  0.5918368E+00  0.0000000E+00  0.6122449E-01 -0.2773612E-08  0.0000000E+00 -0.5633731E-01
  0.6326531E+00  0.0000000E+00  0.6122449E-01 -0.3140565E-08  0.0000000E+00 -0.5633732E-01
  0.6734694E+00  0.0000000E+00  0.6122449E-01 -0.3232306E-08  0.0000000E+00 -0.5633732E-01
  0.7142857E+00  0.0000000E+00  0.6122449E-01 -0.2708384E-08  0.0000000E+00 -0.5633732E-01
  0.7551020E+00  0.0000000E+00  0.6122449E-01 -0.2261214E-08  0.0000000E+00 -0.5633732E-01
  0.7959183E+00  0.0000000E+00  0.6122449E-01 -0.2164139E-08  0.0000000E+00 -0.5633732E-01
  0.8367347E+00  0.0000000E+00  0.6122449E-01 -0.1951732E-08  0.0000000E+00 -0.5633733E-01
  0.8775510E+00  0.0000000E+00  0.6122449E-01 -0.1456250E-08  0.0000000E+00 -0.5633733E-01
  0.9183673E+00  0.0000000E+00  0.6122449E-01 -0.9282466E-09  0.0000000E+00 -0.5633733E-01
  0.9591837E+00  0.0000000E+00  0.6122449E-01 -0.6098109E-09  0.0000000E+00 -0.5633733E-01
  0.1000000E+01  0.0000000E+00  0.6122449E-01 -0.3389096E-09  0.0000000E+00 -0.5633733E-01
  0.1040816E+01  0.0000000E+00  0.6122449E-01  0.1753390E-09  0.0000000E+00 -0.5633733E-01
  0.1081633E+01  0.0000000E+00  0.6122449E-01  0.9110172E-09  0.0000000E+00 -0.5633733E-01
  0.1122449E+01  0.0000000E+00  0.6122449E-01  0.1090562E-08  0.0000000E+00 -0.5633733E-01
  0.1163265E+01  0.0000000E+00  0.6122449E-01  0.5790608E-09  0.0000000E+00 -0.5633733E-01
  0.1204082E+01  0.0000000E+00  0.6122449E-01  0.1184455E-09  0.0000000E+00 -0.5633733E-01
  0.1244898E+01  0.0000000E+00  0.6122449E-01  0.6932751E-09  0.0000000E+00 -0.5633733E-01
  0.1285714E+01  0.0000000E+00  0.6122449E-01  0.1916048E-08  0.0000000E+00 -0.5633733E-01
  0.1326531E+01  0.0000000E+00  0.6122449E-01  0.2003197E-08  0.0000000E+00 -0.5633732E-01
  0.1367347E+01  0.0000000E+00  0.6122449E-01  0.2066918E-08  0.0000000E+00 -0.5633732E-01
  0.1408163E+01  0.0000000E+00  0.6122449E-01  0.2226588E-08  0.0000000E+00 -0.5633732E-01
  0.1448980E+01  0.0000000E+00  0.6122449E-01  0.2350082E-08  0.0000000E+00 -0.5633732E-01
  0.1489796E+01  0.0000000E+00  0.6122449E-01  0.2357066E-08  0.0000000E+00 -0.5633732E-01
  0.1530612E+01  0.0000000E+00  0.6122449E-01  0.2328353E-08  0.0000000E+00 -0.5633732E-01
  0.1571429E+01  0.0000000E+00  0.6122449E-01  0.2111149E-08  0.0000000E+00 -0.5633731E-01
  0.1612245E+01  0.0000000E+00  0.6122449E-01  0.1739735E-08  0.0000000E+00 -0.5633731E-01
  0.1653061E+01  0.0000000E+00  0.6122449E-01  0.1313898E-08  0.0000000E+00 -0.5633731E-01
  0.1693878E+01  0.0000000E+00  0.6122449E-01  0.8591002E-09  0.0000000E+00 -0.5633731E-01
  0.1734694E+01  0.0000000E+00  0.6122449E-01  0.4196234E-09  0.0000000E+00 -0.5633731E-01
  0.1775510E+01  0.0000000E+00  0.6122449E-01 -0.8693718E-10  0.0000000E+00 -0.5633731E-01
  0.1816326E+01  0.0000000E+00  0.6122449E-01 -0.5072140E-09  0.0000000E+00 -0.5633731E-01
  0.1857143E+01  0.0000000E+00  0.6122449E-01 -0.8844879E-09  0.0000000E+00 -0.5633731E-01
  0.1897959E+01  0.0000000E+00  0.6122449E-01 -0.1540802E-08  0.0000000E+00 -0.5633731E-01
  0.1938776E+01  0.0000000E+00  0.6122449E-01 -0.2506465E-08  0.0000000E+00 -0.5633731E-01
  0.1989796E+01  0.0000000E+00  0.6122449E-01 -0.2546223E-08  0.0000000E+00 -0.5633731E-01
  0.2040816E-01  0.0000000E+00  0.1020408E+00 -0.1788942E-08  0.0000000E+00 -0.5642074E-01
  0.6122449E-01  0.0000000E+00  0.1020408E+00  0.7567383E-10  0.0000000E+00 -0.5642074E-01
  0.1020408E+00  0.0000000E+00  0.1020408E+00  0.4547619E-09  0.0000000E+00 -0.5642074E-01
  0.1428571E+00  0.0000000E+00  0.1020408E+00 -0.6648688E-09  0.0000000E+00 -0.5642074E-01
  0.1836735E+00  0.0000000E+00  0.1020408E+00 -0.4486459E-09  0.0000000E+00 -0.5642074E-01
  0.2244898E+00  0.0000000E+00  0.1020408E+00  0.1890968E-10  0.0000000E+00 -0.5642074E-01
  0.2653061E+00  0.0000000E+00  0.1020408E+00 -0.3123371E-09  0.0000000E+00 -0.5642074E-01
  0.3061225E+00  0.0000000E+00  0.1020408E+00 -0.1535774E-08  0.0000000E+00 -0.5642074E-01
  0.3469388E+00  0.0000000E+00  0.1020408E+00 -0.2408676E-08  0.0000000E+00 -0.5642074E-01
  0.3877551E+00  0.0000000E+00  0.1020408E+00 -0.2615443E-08  0.0000000E+00 -0.5642074E-01
  0.4285714E+00  0.0000000E+00  0.1020408E+00 -0.2932888E-08  0.0000000E+00 -0.5642074E-01
  0.4693878E+00  0.0000000E+00  0.1020408E+00 -0.3984991E-08  0.0000000E+00 -0.5642075E-01
  0.5102041E+00  0.0000000E+00  0.1020408E+00 -0.4688964E-08  0.0000000E+00 -0.5642075E-01
  0.5510204E+00  0.0000000E+00  0.1020408E+00 -0.4545839E-08  0.0000000E+00 -0.5642075E-01
  0.5918368E+00  0.0000000E+00  0.1020408E+00 -0.4165804E-08  0.0000000E+00 -0.5642075E-01
  0.6326531E+00  0.0000000E+00  0.1020408E+00 -0.4304783E-08  0.0000000E+00 -0.5642076E-01
  0.6734694E+00  0.0000000E+00  0.1020408E+00 -0.4793393E-08  0.0000000E+00 -0.5642076E-01
  0.7142857E+00  0.0000000E+00  0.1020408E+00 -0.4502030E-08  0.0000000E+00 -0.5642076E-01
  0.7551020E+00  0.0000000E+00  0.1020408E+00 -0.3679495E-08  0.0000000E+00 -0.5642076E-01
  0.7959183E+00  0.0000000E+00  0.1020408E+00 -0.3120303E-08  0.0000000E+00 -0.5642077E-01
  0.8367347E+00  0.0000000E+00  0.1020408E+00 -0.2790356E-08  0.0000000E+00 -0.5642077E-01
  0.8775510E+00  0.0000000E+00  0.1020408E+00 -0.2312675E-08  0.0000000E+00 -0.5642077E-01
  0.9183673E+00  0.0000000E+00  0.1020408E+00 -0.1680392E-08  0.0000000E+00 -0.5642077E-01
  0.9591837E+00  0.0000000E+00  0.1020408E+00 -0.1097763E-08  0.0000000E+00 -0.5642077E-01
  0.1000000E+01  0.0000000E+00  0.1020408E+00 -0.3459516E-09  0.0000000E+00 -0.5642077E-01
  0.1040816E+01  0.0000000E+00  0.1020408E+00  0.2749761E-09  0.0000000E+00 -0.5642077E-01
  0.1081633E+01  0.0000000E+00  0.1020408E+00  0.8607076E-09  0.0000000E+00 -0.5642077E-01
  0.1122449E+01  0.0000000E+00  0.1020408E+00  0.1334697E-08  0.0000000E+00 -0.5642077E-01
  0.1163265E+01  0.0000000E+00  0.1020408E+00  0.1017258E-08  0.0000000E+00 -0.5642077E-01
  0.1204082E+01  0.0000000E+00  0.1020408E+00  0.1062930E-08  0.0000000E+00 -0.5642077E-01
  0.1244898E+01  0.0000000E+00  0.1020408E+00  0.1314049E-08  0.0000000E+00 -0.5642077E-01
  0.1285714E+01  0.0000000E+00  0.1020408E+00  0.2575940E-08  0.0000000E+00 -0.5642077E-01
  0.1326531E+01  0.0000000E+00  0.1020408E+00  0.2967112E-08  0.0000000E+00 -0.5642077E-01
  0.1367347E+01  0.0000000E+00  0.1020408E+00  0.3228539E-08  0.0000000E+00 -0.5642076E-01
  0.1408163E+01  0.0000000E+00  0.1020408E+00  0.3511887E-08  0.0000000E+00 -0.5642076E-01
  0.1448980E+01  0.0000000E+00  0.1020408E+00  0.3705130E-08  0.0000000E+00 -0.5642076E-01
  0.1489796E+01  0.0000000E+00  0.1020408E+00  0.3665630E-08  0.0000000E+00 -0.5642076E-01
  0.1530612E+01  0.0000000E+00  0.1020408E+00  0.3561901E-08  0.0000000E+00 -0.5642075E-01
  0.1571429E+01  0.0000000E+00  0.1020408E+00  0.3299099E-08  0.0000000E+00 -0.5642075E-01
  0.1612245E+01  0.0000000E+00  0.1020408E+00  0.2801145E-08  0.0000000E+00 -0.5642075E-01
  0.1653061E+01  0.0000000E+00  0.1020408E+00  0.2082708E-08  0.0000000E+00 -0.5642075E-01
  0.1693878E+01  0.0000000E+00  0.1020408E+00  0.1330131E-08  0.0000000E+00 -0.5642075E-01
  0.1734694E+01  0.0000000E+00  0.1020408E+00  0.7319710E-09  0.0000000E+00 -0.5642075E-01
  0.1775510E+01  0.0000000E+00  0.1020408E+00  0.1273258E-09  0.0000000E+00 -0.5642075E-01
  0.1816326E+01  0.0000000E+00  0.1020408E+00 -0.5807845E-09  0.0000000E+00 -0.5642075E-01
  0.1857143E+01  0.0000000E+00  0.1020408E+00 -0.1566496E-08  0.0000000E+00 -0.5642075E-01
  0.1897959E+01  0.0000000E+00  0.1020408E+00 -0.2077428E-08  0.0000000E+00 -0.5642075E-01
  0.1938776E+01  0.0000000E+00  0.1020408E+00 -0.1988614E-08  0.0000000E+00 -0.5642075E-01
  0.1989796E+01  0.0000000E+00  0.1020408E+00 -0.3220360E-08  0.0000000E+00 -0.5642075E-01
  0.2040816E-01  0.0000000E+00  0.1428571E+00 -0.1796170E-08  0.0000000E+00 -0.5657547E-01
  0.6122449E-01  0.0000000E+00  0.1428571E+00  0.1088582E-09  0.0000000E+00 -0.5657547E-01
  0.1020408E+00  0.0000000E+00  0.1428571E+00  0.6039539E-09  0.0000000E+00 -0.5657547E-01
  0.1428571E+00  0.0000000E+00  0.1428571E+00 -0.2697338E-09  0.0000000E+00 -0.5657547E-01
  0.1836735E+00  0.0000000E+00  0.1428571E+00 -0.3891352E-09  0.0000000E+00 -0.5657547E-01
  0.2244898E+00  0.0000000E+00  0.1428571E+00 -0.4337068E-09  0.0000000E+00 -0.5657547E-01
  0.2653061E+00  0.0000000E+00  0.1428571E+00 -0.5342594E-09  0.0000000E+00 -0.5657547E-01
  0.3061225E+00  0.0000000E+00  0.1428571E+00 -0.1734512E-08  0.0000000E+00 -0.5657547E-01
  0.3469388E+00  0.0000000E+00  0.1428571E+00 -0.3365808E-08  0.0000000E+00 -0.5657548E-01
  0.3877551E+00  0.0000000E+00  0.1428571E+00 -0.4168194E-08  0.0000000E+00 -0.5657548E-01
  0.4285714E+00  0.0000000E+00  0.1428571E+00 -0.4095714E-08  0.0000000E+00 -0.5657548E-01
  0.4693878E+00  0.0000000E+00  0.1428571E+00 -0.4635109E-08  0.0000000E+00 -0.5657548E-01
  0.5102041E+00  0.0000000E+00  0.1428571E+00 -0.5768264E-08  0.0000000E+00 -0.5657548E-01
  0.5510204E+00  0.0000000E+00  0.1428571E+00 -0.6368916E-08  0.0000000E+00 -0.5657549E-01
  0.5918368E+00  0.0000000E+00  0.1428571E+00 -0.5992756E-08  0.0000000E+00 -0.5657549E-01
  0.6326531E+00  0.0000000E+00  0.1428571E+00 -0.5416985E-08  0.0000000E+00 -0.5657549E-01
  0.6734694E+00  0.0000000E+00  0.1428571E+00 -0.5701767E-08  0.0000000E+00 -0.5657549E-01
  0.7142857E+00  0.0000000E+00  0.1428571E+00 -0.5916118E-08  0.0000000E+00 -0.5657550E-01
  0.7551020E+00  0.0000000E+00  0.1428571E+00 -0.5299314E-08  0.0000000E+00 -0.5657550E-01
  0.7959183E+00  0.0000000E+00  0.1428571E+00 -0.4339215E-08  0.0000000E+00 -0.5657550E-01
  0.8367347E+00  0.0000000E+00  0.1428571E+00 -0.3584675E-08  0.0000000E+00 -0.5657550E-01
  0.8775510E+00  0.0000000E+00  0.1428571E+00 -0.2999697E-08  0.0000000E+00 -0.5657551E-01
  0.9183673E+00  0.0000000E+00  0.1428571E+00 -0.2421636E-08  0.0000000E+00 -0.5657551E-01
  0.9591837E+00  0.0000000E+00  0.1428571E+00 -0.1768453E-08  0.0000000E+00 -0.5657551E-01
  0.1000000E+01  0.0000000E+00  0.1428571E+00 -0.5865781E-09  0.0000000E+00 -0.5657551E-01
  0.1040816E+01  0.0000000E+00  0.1428571E+00  0.1802988E-09  0.0000000E+00 -0.5657551E-01
  0.1081633E+01  0.0000000E+00  0.1428571E+00  0.8601609E-09  0.0000000E+00 -0.5657551E-01
  0.1122449E+01  0.0000000E+00  0.1428571E+00  0.1427988E-08  0.0000000E+00 -0.5657551E-01
  0.1163265E+01  0.0000000E+00  0.1428571E+00  0.1623991E-08  0.0000000E+00 -0.5657551E-01
  0.1204082E+01  0.0000000E+00  0.1428571E+00  0.1961912E-08  0.0000000E+00 -0.5657551E-01
  0.1244898E+01  0.0000000E+00  0.1428571E+00  0.2330231E-08  0.0000000E+00 -0.5657551E-01
  0.1285714E+01  0.0000000E+00  0.1428571E+00  0.3256442E-08  0.0000000E+00 -0.5657550E-01
  0.1326531E+01  0.0000000E+00  0.1428571E+00  0.3894090E-08  0.0000000E+00 -0.5657550E-01
  0.1367347E+01  0.0000000E+00  0.1428571E+00  0.4371981E-08  0.0000000E+00 -0.5657550E-01
  0.1408163E+01  0.0000000E+00  0.1428571E+00  0.4768554E-08  0.0000000E+00 -0.5657550E-01
  0.1448980E+01  0.0000000E+00  0.1428571E+00  0.5064285E-08  0.0000000E+00 -0.5657550E-01
  0.1489796E+01  0.0000000E+00  0.1428571E+00  0.5008612E-08  0.0000000E+00 -0.5657549E-01
  0.1530612E+01  0.0000000E+00  0.1428571E+00  0.4761667E-08  0.0000000E+00 -0.5657549E-01
  0.1571429E+01  0.0000000E+00  0.1428571E+00  0.4420544E-08  0.0000000E+00 -0.5657549E-01
  0.1612245E+01  0.0000000E+00  0.1428571E+00  0.3905124E-08  0.0000000E+00 -0.5657549E-01
  0.1653061E+01  0.0000000E+00  0.1428571E+00  0.3014731E-08  0.0000000E+00 -0.5657548E-01
  0.1693878E+01  0.0000000E+00  0.1428571E+00  0.1922746E-08  0.0000000E+00 -0.5657548E-01
  0.1734694E+01  0.0000000E+00  0.1428571E+00  0.1035752E-08  0.0000000E+00 -0.5657548E-01
  0.1775510E+01  0.0000000E+00  0.1428571E+00  0.4296024E-09  0.0000000E+00 -0.5657548E-01
  0.1816326E+01  0.0000000E+00  0.1428571E+00 -0.3171396E-09  0.0000000E+00 -0.5657548E-01
  0.1857143E+01  0.0000000E+00  0.1428571E+00 -0.1893574E-08  0.0000000E+00 -0.5657548E-01
  0.1897959E+01  0.0000000E+00  0.1428571E+00 -0.2102953E-08  0.0000000E+00 -0.5657548E-01
  0.1938776E+01  0.0000000E+00  0.1428571E+00 -0.1572036E-08  0.0000000E+00 -0.5657548E-01
  0.1989796E+01  0.0000000E+00  0.1428571E+00 -0.3200820E-08  0.0000000E+00 -0.5657548E-01
  0.2040816E-01  0.0000000E+00  0.1836735E+00 -0.1481294E-08  0.0000000E+00 -0.5681539E-01
  0.6122449E-01  0.0000000E+00  0.1836735E+00 -0.4935951E-09  0.0000000E+00 -0.5681539E-01
  0.1020408E+00  0.0000000E+00  0.1836735E+00  0.2221103E-09  0.0000000E+00 -0.5681539E-01
  0.1428571E+00  0.0000000E+00  0.1836735E+00  0.6013219E-09  0.0000000E+00 -0.5681539E-01
  0.1836735E+00  0.0000000E+00  0.1836735E+00 -0.4158070E-10  0.0000000E+00 -0.5681539E-01
  0.2244898E+00  0.0000000E+00  0.1836735E+00 -0.1178321E-08  0.0000000E+00 -0.5681539E-01
  0.2653061E+00  0.0000000E+00  0.1836735E+00 -0.1518221E-08  0.0000000E+00 -0.5681539E-01
  0.3061225E+00  0.0000000E+00  0.1836735E+00 -0.2102815E-08  0.0000000E+00 -0.5681539E-01
  0.3469388E+00  0.0000000E+00  0.1836735E+00 -0.3752044E-08  0.0000000E+00 -0.5681539E-01
  0.3877551E+00  0.0000000E+00  0.1836735E+00 -0.5491867E-08  0.0000000E+00 -0.5681539E-01
  0.4285714E+00  0.0000000E+00  0.1836735E+00 -0.5879108E-08  0.0000000E+00 -0.5681540E-01
  0.4693878E+00  0.0000000E+00  0.1836735E+00 -0.5752547E-08  0.0000000E+00 -0.5681540E-01
  0.5102041E+00  0.0000000E+00  0.1836735E+00 -0.6296066E-08  0.0000000E+00 -0.5681540E-01
  0.5510204E+00  0.0000000E+00  0.1836735E+00 -0.7438193E-08  0.0000000E+00 -0.5681540E-01
  0.5918368E+00  0.0000000E+00  0.1836735E+00 -0.7889056E-08  0.0000000E+00 -0.5681541E-01
  0.6326531E+00  0.0000000E+00  0.1836735E+00 -0.7107770E-08  0.0000000E+00 -0.5681541E-01
  0.6734694E+00  0.0000000E+00  0.1836735E+00 -0.6607003E-08  0.0000000E+00 -0.5681541E-01
  0.7142857E+00  0.0000000E+00  0.1836735E+00 -0.6800096E-08  0.0000000E+00 -0.5681541E-01
  0.7551020E+00  0.0000000E+00  0.1836735E+00 -0.6684472E-08  0.0000000E+00 -0.5681542E-01
  0.7959183E+00  0.0000000E+00  0.1836735E+00 -0.5840556E-08  0.0000000E+00 -0.5681542E-01
  0.8367347E+00  0.0000000E+00  0.1836735E+00 -0.4730479E-08  0.0000000E+00 -0.5681542E-01
  0.8775510E+00  0.0000000E+00  0.1836735E+00 -0.3792341E-08  0.0000000E+00 -0.5681542E-01
  0.9183673E+00  0.0000000E+00  0.1836735E+00 -0.3091421E-08  0.0000000E+00 -0.5681543E-01
  0.9591837E+00  0.0000000E+00  0.1836735E+00 -0.2444689E-08  0.0000000E+00 -0.5681543E-01
  0.1000000E+01  0.0000000E+00  0.1836735E+00 -0.1232376E-08  0.0000000E+00 -0.5681543E-01
  0.1040816E+01  0.0000000E+00  0.1836735E+00 -0.9867658E-10  0.0000000E+00 -0.5681543E-01
  0.1081633E+01  0.0000000E+00  0.1836735E+00  0.9898055E-09  0.0000000E+00 -0.5681543E-01
  0.1122449E+01  0.0000000E+00  0.1836735E+00  0.1488865E-08  0.0000000E+00 -0.5681543E-01
  0.1163265E+01  0.0000000E+00  0.1836735E+00  0.2281447E-08  0.0000000E+00 -0.5681543E-01
  0.1204082E+01  0.0000000E+00  0.1836735E+00  0.2901970E-08  0.0000000E+00 -0.5681543E-01
  0.1244898E+01  0.0000000E+00  0.1836735E+00  0.3462829E-08  0.0000000E+00 -0.5681542E-01
  0.1285714E+01  0.0000000E+00  0.1836735E+00  0.4200634E-08  0.0000000E+00 -0.5681542E-01
  0.1326531E+01  0.0000000E+00  0.1836735E+00  0.4986972E-08  0.0000000E+00 -0.5681542E-01
  0.1367347E+01  0.0000000E+00  0.1836735E+00  0.5624825E-08  0.0000000E+00 -0.5681542E-01
  0.1408163E+01  0.0000000E+00  0.1836735E+00  0.6056020E-08  0.0000000E+00 -0.5681542E-01
  0.1448980E+01  0.0000000E+00  0.1836735E+00  0.6429126E-08  0.0000000E+00 -0.5681541E-01
  0.1489796E+01  0.0000000E+00  0.1836735E+00  0.6450251E-08  0.0000000E+00 -0.5681541E-01
  0.1530612E+01  0.0000000E+00  0.1836735E+00  0.6082246E-08  0.0000000E+00 -0.5681541E-01
  0.1571429E+01  0.0000000E+00  0.1836735E+00  0.5548444E-08  0.0000000E+00 -0.5681540E-01
  0.1612245E+01  0.0000000E+00  0.1836735E+00  0.4996844E-08  0.0000000E+00 -0.5681540E-01
  0.1653061E+01  0.0000000E+00  0.1836735E+00  0.4122934E-08  0.0000000E+00 -0.5681540E-01
  0.1693878E+01  0.0000000E+00  0.1836735E+00  0.2828479E-08  0.0000000E+00 -0.5681540E-01
  0.1734694E+01  0.0000000E+00  0.1836735E+00  0.1519563E-08  0.0000000E+00 -0.5681540E-01
  0.1775510E+01  0.0000000E+00  0.1836735E+00  0.7273957E-09  0.0000000E+00 -0.5681540E-01
  0.1816326E+01  0.0000000E+00  0.1836735E+00  0.8057350E-10  0.0000000E+00 -0.5681540E-01
  0.1857143E+01  0.0000000E+00  0.1836735E+00 -0.1513057E-08  0.0000000E+00 -0.5681540E-01
  0.1897959E+01  0.0000000E+00  0.1836735E+00 -0.2038177E-08  0.0000000E+00 -0.5681540E-01
  0.1938776E+01  0.0000000E+00  0.1836735E+00 -0.1686694E-08  0.0000000E+00 -0.5681540E-01
  0.1989796E+01  0.0000000E+00  0.1836735E+00 -0.2227421E-08  0.0000000E+00 -0.5681540E-01
  0.2040816E-01  0.0000000E+00  0.2244898E+00 -0.6286466E-09  0.0000000E+00 -0.5715145E-01
  0.6122449E-01  0.0000000E+00  0.2244898E+00 -0.1776143E-08  0.0000000E+00 -0.5715145E-01
  0.1020408E+00  0.0000000E+00  0.2244898E+00 -0.3108654E-09  0.0000000E+00 -0.5715145E-01
  0.1428571E+00  0.0000000E+00  0.2244898E+00  0.8158762E-09  0.0000000E+00 -0.5715145E-01
  0.1836735E+00  0.0000000E+00  0.2244898E+00  0.3934231E-09  0.0000000E+00 -0.5715145E-01
  0.2244898E+00  0.0000000E+00  0.2244898E+00 -0.1582092E-08  0.0000000E+00 -0.5715145E-01
  0.2653061E+00  0.0000000E+00  0.2244898E+00 -0.2971785E-08  0.0000000E+00 -0.5715145E-01
  0.3061225E+00  0.0000000E+00  0.2244898E+00 -0.3346110E-08  0.0000000E+00 -0.5715145E-01
  0.3469388E+00  0.0000000E+00  0.2244898E+00 -0.4138490E-08  0.0000000E+00 -0.5715145E-01
  0.3877551E+00  0.0000000E+00  0.2244898E+00 -0.6052641E-08  0.0000000E+00 -0.5715146E-01
  0.4285714E+00  0.0000000E+00  0.2244898E+00 -0.7462527E-08  0.0000000E+00 -0.5715146E-01
  0.4693878E+00  0.0000000E+00  0.2244898E+00 -0.7626916E-08  0.0000000E+00 -0.5715146E-01
  0.5102041E+00  0.0000000E+00  0.2244898E+00 -0.7258737E-08  0.0000000E+00 -0.5715146E-01
  0.5510204E+00  0.0000000E+00  0.2244898E+00 -0.7845177E-08  0.0000000E+00 -0.5715147E-01
  0.5918368E+00  0.0000000E+00  0.2244898E+00 -0.9026346E-08  0.0000000E+00 -0.5715147E-01
  0.6326531E+00  0.0000000E+00  0.2244898E+00 -0.9007292E-08  0.0000000E+00 -0.5715147E-01
  0.6734694E+00  0.0000000E+00  0.2244898E+00 -0.8147544E-08  0.0000000E+00 -0.5715148E-01
  0.7142857E+00  0.0000000E+00  0.2244898E+00 -0.7741534E-08  0.0000000E+00 -0.5715148E-01
  0.7551020E+00  0.0000000E+00  0.2244898E+00 -0.7696786E-08  0.0000000E+00 -0.5715148E-01
  0.7959183E+00  0.0000000E+00  0.2244898E+00 -0.7221415E-08  0.0000000E+00 -0.5715148E-01
  0.8367347E+00  0.0000000E+00  0.2244898E+00 -0.6159885E-08  0.0000000E+00 -0.5715149E-01
  0.8775510E+00  0.0000000E+00  0.2244898E+00 -0.4939129E-08  0.0000000E+00 -0.5715149E-01
  0.9183673E+00  0.0000000E+00  0.2244898E+00 -0.3924701E-08  0.0000000E+00 -0.5715149E-01
  0.9591837E+00  0.0000000E+00  0.2244898E+00 -0.3142558E-08  0.0000000E+00 -0.5715149E-01
  0.1000000E+01  0.0000000E+00  0.2244898E+00 -0.2098570E-08  0.0000000E+00 -0.5715149E-01
  0.1040816E+01  0.0000000E+00  0.2244898E+00 -0.4374819E-09  0.0000000E+00 -0.5715149E-01
  0.1081633E+01  0.0000000E+00  0.2244898E+00  0.7980128E-09  0.0000000E+00 -0.5715150E-01
  0.1122449E+01  0.0000000E+00  0.2244898E+00  0.1715459E-08  0.0000000E+00 -0.5715149E-01
  0.1163265E+01  0.0000000E+00  0.2244898E+00  0.3009952E-08  0.0000000E+00 -0.5715149E-01
  0.1204082E+01  0.0000000E+00  0.2244898E+00  0.4033071E-08  0.0000000E+00 -0.5715149E-01
  0.1244898E+01  0.0000000E+00  0.2244898E+00  0.4591041E-08  0.0000000E+00 -0.5715149E-01
  0.1285714E+01  0.0000000E+00  0.2244898E+00  0.5424313E-08  0.0000000E+00 -0.5715149E-01
  0.1326531E+01  0.0000000E+00  0.2244898E+00  0.6331602E-08  0.0000000E+00 -0.5715149E-01
  0.1367347E+01  0.0000000E+00  0.2244898E+00  0.7087666E-08  0.0000000E+00 -0.5715148E-01
  0.1408163E+01  0.0000000E+00  0.2244898E+00  0.7485595E-08  0.0000000E+00 -0.5715148E-01
  0.1448980E+01  0.0000000E+00  0.2244898E+00  0.7802776E-08  0.0000000E+00 -0.5715148E-01
  0.1489796E+01  0.0000000E+00  0.2244898E+00  0.7926382E-08  0.0000000E+00 -0.5715147E-01
  0.1530612E+01  0.0000000E+00  0.2244898E+00  0.7590775E-08  0.0000000E+00 -0.5715147E-01
  0.1571429E+01  0.0000000E+00  0.2244898E+00  0.6832489E-08  0.0000000E+00 -0.5715147E-01
  0.1612245E+01  0.0000000E+00  0.2244898E+00  0.6073821E-08  0.0000000E+00 -0.5715147E-01
  0.1653061E+01  0.0000000E+00  0.2244898E+00  0.5272655E-08  0.0000000E+00 -0.5715146E-01
  0.1693878E+01  0.0000000E+00  0.2244898E+00  0.4040947E-08  0.0000000E+00 -0.5715146E-01
  0.1734694E+01  0.0000000E+00  0.2244898E+00  0.2426155E-08  0.0000000E+00 -0.5715146E-01
  0.1775510E+01  0.0000000E+00  0.2244898E+00  0.1147003E-08  0.0000000E+00 -0.5715146E-01
  0.1816326E+01  0.0000000E+00  0.2244898E+00  0.4386347E-09  0.0000000E+00 -0.5715146E-01
  0.1857143E+01  0.0000000E+00  0.2244898E+00 -0.6495128E-09  0.0000000E+00 -0.5715146E-01
  0.1897959E+01  0.0000000E+00  0.2244898E+00 -0.2064037E-08  0.0000000E+00 -0.5715146E-01
  0.1938776E+01  0.0000000E+00  0.2244898E+00 -0.1229801E-08  0.0000000E+00 -0.5715146E-01
  0.1989796E+01  0.0000000E+00  0.2244898E+00 -0.1399368E-08  0.0000000E+00 -0.5715146E-01
  0.2040816E-01  0.0000000E+00  0.2653061E+00 -0.4475563E-09  0.0000000E+00 -0.5759188E-01
  0.6122449E-01  0.0000000E+00  0.2653061E+00 -0.2255708E-08  0.0000000E+00 -0.5759188E-01
  0.1020408E+00  0.0000000E+00  0.2653061E+00 -0.6979546E-09  0.0000000E+00 -0.5759188E-01
  0.1428571E+00  0.0000000E+00  0.2653061E+00 -0.2265073E-10  0.0000000E+00 -0.5759188E-01
  0.1836735E+00  0.0000000E+00  0.2653061E+00  0.8725240E-10  0.0000000E+00 -0.5759188E-01
  0.2244898E+00  0.0000000E+00  0.2653061E+00 -0.1654335E-08  0.0000000E+00 -0.5759189E-01
  0.2653061E+00  0.0000000E+00  0.2653061E+00 -0.4058755E-08  0.0000000E+00 -0.5759189E-01
  0.3061225E+00  0.0000000E+00  0.2653061E+00 -0.5236005E-08  0.0000000E+00 -0.5759189E-01
  0.3469388E+00  0.0000000E+00  0.2653061E+00 -0.5432152E-08  0.0000000E+00 -0.5759189E-01
  0.3877551E+00  0.0000000E+00  0.2653061E+00 -0.6387796E-08  0.0000000E+00 -0.5759189E-01
  0.4285714E+00  0.0000000E+00  0.2653061E+00 -0.8128832E-08  0.0000000E+00 -0.5759190E-01
  0.4693878E+00  0.0000000E+00  0.2653061E+00 -0.9346268E-08  0.0000000E+00 -0.5759190E-01
  0.5102041E+00  0.0000000E+00  0.2653061E+00 -0.9094626E-08  0.0000000E+00 -0.5759190E-01
  0.5510204E+00  0.0000000E+00  0.2653061E+00 -0.8664037E-08  0.0000000E+00 -0.5759190E-01
  0.5918368E+00  0.0000000E+00  0.2653061E+00 -0.9486910E-08  0.0000000E+00 -0.5759191E-01
  0.6326531E+00  0.0000000E+00  0.2653061E+00 -0.1029482E-07  0.0000000E+00 -0.5759191E-01
  0.6734694E+00  0.0000000E+00  0.2653061E+00 -0.9958940E-08  0.0000000E+00 -0.5759191E-01
  0.7142857E+00  0.0000000E+00  0.2653061E+00 -0.9194662E-08  0.0000000E+00 -0.5759192E-01
  0.7551020E+00  0.0000000E+00  0.2653061E+00 -0.8769306E-08  0.0000000E+00 -0.5759192E-01
  0.7959183E+00  0.0000000E+00  0.2653061E+00 -0.8404602E-08  0.0000000E+00 -0.5759192E-01
  0.8367347E+00  0.0000000E+00  0.2653061E+00 -0.7605413E-08  0.0000000E+00 -0.5759192E-01
  0.8775510E+00  0.0000000E+00  0.2653061E+00 -0.6390310E-08  0.0000000E+00 -0.5759193E-01
  0.9183673E+00  0.0000000E+00  0.2653061E+00 -0.5109592E-08  0.0000000E+00 -0.5759193E-01
  0.9591837E+00  0.0000000E+00  0.2653061E+00 -0.4032233E-08  0.0000000E+00 -0.5759193E-01
  0.1000000E+01  0.0000000E+00  0.2653061E+00 -0.2944629E-08  0.0000000E+00 -0.5759193E-01
  0.1040816E+01  0.0000000E+00  0.2653061E+00 -0.1168957E-08  0.0000000E+00 -0.5759194E-01
  0.1081633E+01  0.0000000E+00  0.2653061E+00  0.4945709E-09  0.0000000E+00 -0.5759194E-01
  0.1122449E+01  0.0000000E+00  0.2653061E+00  0.2016042E-08  0.0000000E+00 -0.5759194E-01
  0.1163265E+01  0.0000000E+00  0.2653061E+00  0.3800647E-08  0.0000000E+00 -0.5759193E-01
  0.1204082E+01  0.0000000E+00  0.2653061E+00  0.5244520E-08  0.0000000E+00 -0.5759193E-01
  0.1244898E+01  0.0000000E+00  0.2653061E+00  0.6009633E-08  0.0000000E+00 -0.5759193E-01
  0.1285714E+01  0.0000000E+00  0.2653061E+00  0.6933251E-08  0.0000000E+00 -0.5759193E-01
  0.1326531E+01  0.0000000E+00  0.2653061E+00  0.7903897E-08  0.0000000E+00 -0.5759192E-01