title = "dataset feddes"
variables = "x", "y", "z", "vx", "vy", "vz"
zone t = "velocities, solution time =  4.100E+01 days        " i =   49, j =   49, k =    1,  f=point
  0.2040816E-01  0.0000000E+00  0.2040816E-01  0.4184239E-06  0.0000000E+00 -0.8539954E-01
  0.6122449E-01  0.0000000E+00  0.2040816E-01  0.1248984E-05  0.0000000E+00 -0.8539765E-01
  0.1020408E+00  0.0000000E+00  0.2040816E-01  0.2060632E-05  0.0000000E+00 -0.8539389E-01
  0.1428571E+00  0.0000000E+00  0.2040816E-01  0.2837792E-05  0.0000000E+00 -0.8538833E-01
  0.1836735E+00  0.0000000E+00  0.2040816E-01  0.3564868E-05  0.0000000E+00 -0.8538105E-01
  0.2244898E+00  0.0000000E+00  0.2040816E-01  0.4232369E-05  0.0000000E+00 -0.8537219E-01
  0.2653061E+00  0.0000000E+00  0.2040816E-01  0.4829903E-05  0.0000000E+00 -0.8536190E-01
  0.3061225E+00  0.0000000E+00  0.2040816E-01  0.5343942E-05  0.0000000E+00 -0.8535034E-01
  0.3469388E+00  0.0000000E+00  0.2040816E-01  0.5764545E-05  0.0000000E+00 -0.8533772E-01
  0.3877551E+00  0.0000000E+00  0.2040816E-01  0.6084463E-05  0.0000000E+00 -0.8532426E-01
  0.4285714E+00  0.0000000E+00  0.2040816E-01  0.6297373E-05  0.0000000E+00 -0.8531020E-01
  0.4693878E+00  0.0000000E+00  0.2040816E-01  0.6397979E-05  0.0000000E+00 -0.8529578E-01
  0.5102041E+00  0.0000000E+00  0.2040816E-01  0.6382745E-05  0.0000000E+00 -0.8528126E-01
  0.5510204E+00  0.0000000E+00  0.2040816E-01  0.6250300E-05  0.0000000E+00 -0.8526691E-01
  0.5918368E+00  0.0000000E+00  0.2040816E-01  0.6001490E-05  0.0000000E+00 -0.8525299E-01
  0.6326531E+00  0.0000000E+00  0.2040816E-01  0.5639308E-05  0.0000000E+00 -0.8523977E-01
  0.6734694E+00  0.0000000E+00  0.2040816E-01  0.5168831E-05  0.0000000E+00 -0.8522750E-01
  0.7142857E+00  0.0000000E+00  0.2040816E-01  0.4597184E-05  0.0000000E+00 -0.8521641E-01
  0.7551020E+00  0.0000000E+00  0.2040816E-01  0.3933500E-05  0.0000000E+00 -0.8520672E-01
  0.7959183E+00  0.0000000E+00  0.2040816E-01  0.3188813E-05  0.0000000E+00 -0.8519863E-01
  0.8367347E+00  0.0000000E+00  0.2040816E-01  0.2375840E-05  0.0000000E+00 -0.8519231E-01
  0.8775510E+00  0.0000000E+00  0.2040816E-01  0.1508655E-05  0.0000000E+00 -0.8518790E-01
  0.9183673E+00  0.0000000E+00  0.2040816E-01  0.6023125E-06  0.0000000E+00 -0.8518550E-01
  0.9591837E+00  0.0000000E+00  0.2040816E-01 -0.3258636E-06  0.0000000E+00 -0.8518518E-01
  0.1000000E+01  0.0000000E+00  0.2040816E-01 -0.1260041E-05  0.0000000E+00 -0.8518699E-01
  0.1040816E+01  0.0000000E+00  0.2040816E-01 -0.2185353E-05  0.0000000E+00 -0.8519090E-01
  0.1081633E+01  0.0000000E+00  0.2040816E-01 -0.3083806E-05  0.0000000E+00 -0.8519688E-01
  0.1122449E+01  0.0000000E+00  0.2040816E-01 -0.3936766E-05  0.0000000E+00 -0.8520486E-01
  0.1163265E+01  0.0000000E+00  0.2040816E-01 -0.4732680E-05  0.0000000E+00 -0.8521470E-01
  0.1204082E+01  0.0000000E+00  0.2040816E-01 -0.5459659E-05  0.0000000E+00 -0.8522628E-01
  0.1244898E+01  0.0000000E+00  0.2040816E-01 -0.6102309E-05  0.0000000E+00 -0.8523941E-01
  0.1285714E+01  0.0000000E+00  0.2040816E-01 -0.6649908E-05  0.0000000E+00 -0.8525389E-01
  0.1326531E+01  0.0000000E+00  0.2040816E-01 -0.7095211E-05  0.0000000E+00 -0.8526951E-01
  0.1367347E+01  0.0000000E+00  0.2040816E-01 -0.7432153E-05  0.0000000E+00 -0.8528601E-01
  0.1408163E+01  0.0000000E+00  0.2040816E-01 -0.7655886E-05  0.0000000E+00 -0.8530315E-01
  0.1448980E+01  0.0000000E+00  0.2040816E-01 -0.7763461E-05  0.0000000E+00 -0.8532066E-01
  0.1489796E+01  0.0000000E+00  0.2040816E-01 -0.7754148E-05  0.0000000E+00 -0.8533829E-01
  0.1530612E+01  0.0000000E+00  0.2040816E-01 -0.7629339E-05  0.0000000E+00 -0.8535576E-01
  0.1571429E+01  0.0000000E+00  0.2040816E-01 -0.7392240E-05  0.0000000E+00 -0.8537283E-01
  0.1612245E+01  0.0000000E+00  0.2040816E-01 -0.7047550E-05  0.0000000E+00 -0.8538923E-01
  0.1653061E+01  0.0000000E+00  0.2040816E-01 -0.6601280E-05  0.0000000E+00 -0.8540474E-01
  0.1693878E+01  0.0000000E+00  0.2040816E-01 -0.6060717E-05  0.0000000E+00 -0.8541912E-01
  0.1734694E+01  0.0000000E+00  0.2040816E-01 -0.5434413E-05  0.0000000E+00 -0.8543218E-01
  0.1775510E+01  0.0000000E+00  0.2040816E-01 -0.4731968E-05  0.0000000E+00 -0.8544373E-01
  0.1816326E+01  0.0000000E+00  0.2040816E-01 -0.3963724E-05  0.0000000E+00 -0.8545361E-01
  0.1857143E+01  0.0000000E+00  0.2040816E-01 -0.3140657E-05  0.0000000E+00 -0.8546168E-01
  0.1897959E+01  0.0000000E+00  0.2040816E-01 -0.2274386E-05  0.0000000E+00 -0.8546784E-01
  0.1938776E+01  0.0000000E+00  0.2040816E-01 -0.1377022E-05  0.0000000E+00 -0.8547199E-01
  0.1989796E+01  0.0000000E+00  0.2040816E-01 -0.4608618E-06  0.0000000E+00 -0.8547407E-01
  0.2040816E-01  0.0000000E+00  0.6122449E-01  0.1147929E-05  0.0000000E+00 -0.8540121E-01
  0.6122449E-01  0.0000000E+00  0.6122449E-01  0.3425908E-05  0.0000000E+00 -0.8539928E-01
  0.1020408E+00  0.0000000E+00  0.6122449E-01  0.5649952E-05  0.0000000E+00 -0.8539547E-01
  0.1428571E+00  0.0000000E+00  0.6122449E-01  0.7780030E-05  0.0000000E+00 -0.8538982E-01
  0.1836735E+00  0.0000000E+00  0.6122449E-01  0.9775355E-05  0.0000000E+00 -0.8538244E-01
  0.2244898E+00  0.0000000E+00  0.6122449E-01  0.1160675E-04  0.0000000E+00 -0.8537345E-01
  0.2653061E+00  0.0000000E+00  0.6122449E-01  0.1324507E-04  0.0000000E+00 -0.8536300E-01
  0.3061225E+00  0.0000000E+00  0.6122449E-01  0.1465507E-04  0.0000000E+00 -0.8535127E-01
  0.3469388E+00  0.0000000E+00  0.6122449E-01  0.1580971E-04  0.0000000E+00 -0.8533845E-01
  0.3877551E+00  0.0000000E+00  0.6122449E-01  0.1668848E-04  0.0000000E+00 -0.8532479E-01
  0.4285714E+00  0.0000000E+00  0.6122449E-01  0.1727371E-04  0.0000000E+00 -0.8531050E-01
  0.4693878E+00  0.0000000E+00  0.6122449E-01  0.1755092E-04  0.0000000E+00 -0.8529585E-01
  0.5102041E+00  0.0000000E+00  0.6122449E-01  0.1751045E-04  0.0000000E+00 -0.8528110E-01
  0.5510204E+00  0.0000000E+00  0.6122449E-01  0.1714855E-04  0.0000000E+00 -0.8526652E-01
  0.5918368E+00  0.0000000E+00  0.6122449E-01  0.1646746E-04  0.0000000E+00 -0.8525237E-01
  0.6326531E+00  0.0000000E+00  0.6122449E-01  0.1547530E-04  0.0000000E+00 -0.8523893E-01
  0.6734694E+00  0.0000000E+00  0.6122449E-01  0.1418592E-04  0.0000000E+00 -0.8522644E-01
  0.7142857E+00  0.0000000E+00  0.6122449E-01  0.1261882E-04  0.0000000E+00 -0.8521516E-01
  0.7551020E+00  0.0000000E+00  0.6122449E-01  0.1079905E-04  0.0000000E+00 -0.8520530E-01
  0.7959183E+00  0.0000000E+00  0.6122449E-01  0.8756919E-05  0.0000000E+00 -0.8519706E-01
  0.8367347E+00  0.0000000E+00  0.6122449E-01  0.6527282E-05  0.0000000E+00 -0.8519062E-01
  0.8775510E+00  0.0000000E+00  0.6122449E-01  0.4148659E-05  0.0000000E+00 -0.8518611E-01
  0.9183673E+00  0.0000000E+00  0.6122449E-01  0.1663338E-05  0.0000000E+00 -0.8518365E-01
  0.9591837E+00  0.0000000E+00  0.6122449E-01 -0.8833552E-06  0.0000000E+00 -0.8518331E-01
  0.1000000E+01  0.0000000E+00  0.6122449E-01 -0.3446843E-05  0.0000000E+00 -0.8518512E-01
  0.1040816E+01  0.0000000E+00  0.6122449E-01 -0.5983433E-05  0.0000000E+00 -0.8518907E-01
  0.1081633E+01  0.0000000E+00  0.6122449E-01 -0.8446597E-05  0.0000000E+00 -0.8519512E-01
  0.1122449E+01  0.0000000E+00  0.6122449E-01 -0.1078754E-04  0.0000000E+00 -0.8520319E-01
  0.1163265E+01  0.0000000E+00  0.6122449E-01 -0.1297088E-04  0.0000000E+00 -0.8521317E-01
  0.1204082E+01  0.0000000E+00  0.6122449E-01 -0.1496321E-04  0.0000000E+00 -0.8522490E-01
  0.1244898E+01  0.0000000E+00  0.6122449E-01 -0.1672454E-04  0.0000000E+00 -0.8523821E-01
  0.1285714E+01  0.0000000E+00  0.6122449E-01 -0.1822573E-04  0.0000000E+00 -0.8525289E-01
  0.1326531E+01  0.0000000E+00  0.6122449E-01 -0.1944629E-04  0.0000000E+00 -0.8526871E-01
  0.1367347E+01  0.0000000E+00  0.6122449E-01 -0.2036925E-04  0.0000000E+00 -0.8528544E-01
  0.1408163E+01  0.0000000E+00  0.6122449E-01 -0.2098152E-04  0.0000000E+00 -0.8530281E-01
  0.1448980E+01  0.0000000E+00  0.6122449E-01 -0.2127536E-04  0.0000000E+00 -0.8532055E-01
  0.1489796E+01  0.0000000E+00  0.6122449E-01 -0.2124889E-04  0.0000000E+00 -0.8533841E-01
  0.1530612E+01  0.0000000E+00  0.6122449E-01 -0.2090587E-04  0.0000000E+00 -0.8535612E-01
  0.1571429E+01  0.0000000E+00  0.6122449E-01 -0.2025507E-04  0.0000000E+00 -0.8537340E-01
  0.1612245E+01  0.0000000E+00  0.6122449E-01 -0.1930953E-04  0.0000000E+00 -0.8539001E-01
  0.1653061E+01  0.0000000E+00  0.6122449E-01 -0.1808593E-04  0.0000000E+00 -0.8540572E-01
  0.1693878E+01  0.0000000E+00  0.6122449E-01 -0.1660424E-04  0.0000000E+00 -0.8542028E-01
  0.1734694E+01  0.0000000E+00  0.6122449E-01 -0.1488776E-04  0.0000000E+00 -0.8543350E-01
  0.1775510E+01  0.0000000E+00  0.6122449E-01 -0.1296275E-04  0.0000000E+00 -0.8544520E-01
  0.1816326E+01  0.0000000E+00  0.6122449E-01 -0.1085777E-04  0.0000000E+00 -0.8545520E-01
  0.1857143E+01  0.0000000E+00  0.6122449E-01 -0.8602988E-05  0.0000000E+00 -0.8546337E-01
  0.1897959E+01  0.0000000E+00  0.6122449E-01 -0.6230026E-05  0.0000000E+00 -0.8546959E-01
  0.1938776E+01  0.0000000E+00  0.6122449E-01 -0.3771800E-05  0.0000000E+00 -0.8547379E-01
  0.1989796E+01  0.0000000E+00  0.6122449E-01 -0.1262512E-05  0.0000000E+00 -0.8547590E-01
  0.2040816E-01  0.0000000E+00  0.1020408E+00  0.1725341E-05  0.0000000E+00 -0.8540409E-01
  0.6122449E-01  0.0000000E+00  0.1020408E+00  0.5149460E-05  0.0000000E+00 -0.8540212E-01
  0.1020408E+00  0.0000000E+00  0.1020408E+00  0.8490332E-05  0.0000000E+00 -0.8539821E-01
  0.1428571E+00  0.0000000E+00  0.1020408E+00  0.1169049E-04  0.0000000E+00 -0.8539242E-01
  0.1836735E+00  0.0000000E+00  0.1020408E+00  0.1469179E-04  0.0000000E+00 -0.8538485E-01
  0.2244898E+00  0.0000000E+00  0.1020408E+00  0.1744643E-04  0.0000000E+00 -0.8537563E-01
  0.2653061E+00  0.0000000E+00  0.1020408E+00  0.1990947E-04  0.0000000E+00 -0.8536491E-01
  0.3061225E+00  0.0000000E+00  0.1020408E+00  0.2203067E-04  0.0000000E+00 -0.8535287E-01
  0.3469388E+00  0.0000000E+00  0.1020408E+00  0.2376969E-04  0.0000000E+00 -0.8533972E-01
  0.3877551E+00  0.0000000E+00  0.1020408E+00  0.2509467E-04  0.0000000E+00 -0.8532569E-01
  0.4285714E+00  0.0000000E+00  0.1020408E+00  0.2597846E-04  0.0000000E+00 -0.8531102E-01
  0.4693878E+00  0.0000000E+00  0.1020408E+00  0.2639920E-04  0.0000000E+00 -0.8529598E-01
  0.5102041E+00  0.0000000E+00  0.1020408E+00  0.2634246E-04  0.0000000E+00 -0.8528082E-01
  0.5510204E+00  0.0000000E+00  0.1020408E+00  0.2580247E-04  0.0000000E+00 -0.8526583E-01
  0.5918368E+00  0.0000000E+00  0.1020408E+00  0.2478237E-04  0.0000000E+00 -0.8525128E-01
  0.6326531E+00  0.0000000E+00  0.1020408E+00  0.2329413E-04  0.0000000E+00 -0.8523745E-01
  0.6734694E+00  0.0000000E+00  0.1020408E+00  0.2135838E-04  0.0000000E+00 -0.8522460E-01
  0.7142857E+00  0.0000000E+00  0.1020408E+00  0.1900436E-04  0.0000000E+00 -0.8521298E-01
  0.7551020E+00  0.0000000E+00  0.1020408E+00  0.1626973E-04  0.0000000E+00 -0.8520282E-01
  0.7959183E+00  0.0000000E+00  0.1020408E+00  0.1320011E-04  0.0000000E+00 -0.8519432E-01
  0.8367347E+00  0.0000000E+00  0.1020408E+00  0.9847933E-05  0.0000000E+00 -0.8518766E-01
  0.8775510E+00  0.0000000E+00  0.1020408E+00  0.6270862E-05  0.0000000E+00 -0.8518299E-01
  0.9183673E+00  0.0000000E+00  0.1020408E+00  0.2533735E-05  0.0000000E+00 -0.8518043E-01
  0.9591837E+00  0.0000000E+00  0.1020408E+00 -0.1296667E-05  0.0000000E+00 -0.8518004E-01
  0.1000000E+01  0.0000000E+00  0.1020408E+00 -0.5153105E-05  0.0000000E+00 -0.8518185E-01
  0.1040816E+01  0.0000000E+00  0.1020408E+00 -0.8966434E-05  0.0000000E+00 -0.8518587E-01
  0.1081633E+01  0.0000000E+00  0.1020408E+00 -0.1266886E-04  0.0000000E+00 -0.8519204E-01
  0.1122449E+01  0.0000000E+00  0.1020408E+00 -0.1619049E-04  0.0000000E+00 -0.8520029E-01
  0.1163265E+01  0.0000000E+00  0.1020408E+00 -0.1947346E-04  0.0000000E+00 -0.8521049E-01
  0.1204082E+01  0.0000000E+00  0.1020408E+00 -0.2246603E-04  0.0000000E+00 -0.8522249E-01
  0.1244898E+01  0.0000000E+00  0.1020408E+00 -0.2511130E-04  0.0000000E+00 -0.8523611E-01
  0.1285714E+01  0.0000000E+00  0.1020408E+00 -0.2736595E-04  0.0000000E+00 -0.8525113E-01
  0.1326531E+01  0.0000000E+00  0.1020408E+00 -0.2919834E-04  0.0000000E+00 -0.8526733E-01
  0.1367347E+01  0.0000000E+00  0.1020408E+00 -0.3058259E-04  0.0000000E+00 -0.8528444E-01
  0.1408163E+01  0.0000000E+00  0.1020408E+00 -0.3149926E-04  0.0000000E+00 -0.8530221E-01
  0.1448980E+01  0.0000000E+00  0.1020408E+00 -0.3193734E-04  0.0000000E+00 -0.8532036E-01
  0.1489796E+01  0.0000000E+00  0.1020408E+00 -0.3189456E-04  0.0000000E+00 -0.8533862E-01
  0.1530612E+01  0.0000000E+00  0.1020408E+00 -0.3137666E-04  0.0000000E+00 -0.8535672E-01
  0.1571429E+01  0.0000000E+00  0.1020408E+00 -0.3039670E-04  0.0000000E+00 -0.8537439E-01
  0.1612245E+01  0.0000000E+00  0.1020408E+00 -0.2897449E-04  0.0000000E+00 -0.8539137E-01
  0.1653061E+01  0.0000000E+00  0.1020408E+00 -0.2713558E-04  0.0000000E+00 -0.8540741E-01
  0.1693878E+01  0.0000000E+00  0.1020408E+00 -0.2491029E-04  0.0000000E+00 -0.8542229E-01
  0.1734694E+01  0.0000000E+00  0.1020408E+00 -0.2233336E-04  0.0000000E+00 -0.8543579E-01
  0.1775510E+01  0.0000000E+00  0.1020408E+00 -0.1944398E-04  0.0000000E+00 -0.8544773E-01
  0.1816326E+01  0.0000000E+00  0.1020408E+00 -0.1628519E-04  0.0000000E+00 -0.8545794E-01
  0.1857143E+01  0.0000000E+00  0.1020408E+00 -0.1290259E-04  0.0000000E+00 -0.8546628E-01
  0.1897959E+01  0.0000000E+00  0.1020408E+00 -0.9343456E-05  0.0000000E+00 -0.8547264E-01
  0.1938776E+01  0.0000000E+00  0.1020408E+00 -0.5656554E-05  0.0000000E+00 -0.8547692E-01
  0.1989796E+01  0.0000000E+00  0.1020408E+00 -0.1893610E-05  0.0000000E+00 -0.8547908E-01
  0.2040816E-01  0.0000000E+00  0.1428571E+00  0.2232023E-05  0.0000000E+00 -0.8540802E-01
  0.6122449E-01  0.0000000E+00  0.1428571E+00  0.6662505E-05  0.0000000E+00 -0.8540598E-01
  0.1020408E+00  0.0000000E+00  0.1428571E+00  0.1098516E-04  0.0000000E+00 -0.8540194E-01
  0.1428571E+00  0.0000000E+00  0.1428571E+00  0.1512602E-04  0.0000000E+00 -0.8539596E-01
  0.1836735E+00  0.0000000E+00  0.1428571E+00  0.1901203E-04  0.0000000E+00 -0.8538813E-01
  0.2244898E+00  0.0000000E+00  0.1428571E+00  0.2257972E-04  0.0000000E+00 -0.8537860E-01
  0.2653061E+00  0.0000000E+00  0.1428571E+00  0.2577007E-04  0.0000000E+00 -0.8536751E-01
  0.3061225E+00  0.0000000E+00  0.1428571E+00  0.2851980E-04  0.0000000E+00 -0.8535506E-01
  0.3469388E+00  0.0000000E+00  0.1428571E+00  0.3077681E-04  0.0000000E+00 -0.8534145E-01
  0.3877551E+00  0.0000000E+00  0.1428571E+00  0.3249896E-04  0.0000000E+00 -0.8532693E-01
  0.4285714E+00  0.0000000E+00  0.1428571E+00  0.3365049E-04  0.0000000E+00 -0.8531174E-01
  0.4693878E+00  0.0000000E+00  0.1428571E+00  0.3420289E-04  0.0000000E+00 -0.8529614E-01
  0.5102041E+00  0.0000000E+00  0.1428571E+00  0.3413729E-04  0.0000000E+00 -0.8528043E-01
  0.5510204E+00  0.0000000E+00  0.1428571E+00  0.3344591E-04  0.0000000E+00 -0.8526489E-01
  0.5918368E+00  0.0000000E+00  0.1428571E+00  0.3213243E-04  0.0000000E+00 -0.8524979E-01
  0.6326531E+00  0.0000000E+00  0.1428571E+00  0.3021192E-04  0.0000000E+00 -0.8523543E-01
  0.6734694E+00  0.0000000E+00  0.1428571E+00  0.2771079E-04  0.0000000E+00 -0.8522208E-01
  0.7142857E+00  0.0000000E+00  0.1428571E+00  0.2466671E-04  0.0000000E+00 -0.8521000E-01
  0.7551020E+00  0.0000000E+00  0.1428571E+00  0.2112846E-04  0.0000000E+00 -0.8519942E-01
  0.7959183E+00  0.0000000E+00  0.1428571E+00  0.1715512E-04  0.0000000E+00 -0.8519056E-01
  0.8367347E+00  0.0000000E+00  0.1428571E+00  0.1281453E-04  0.0000000E+00 -0.8518361E-01
  0.8775510E+00  0.0000000E+00  0.1428571E+00  0.8181798E-05  0.0000000E+00 -0.8517872E-01
  0.9183673E+00  0.0000000E+00  0.1428571E+00  0.3340821E-05  0.0000000E+00 -0.8517601E-01
  0.9591837E+00  0.0000000E+00  0.1428571E+00 -0.1620800E-05  0.0000000E+00 -0.8517555E-01
  0.1000000E+01  0.0000000E+00  0.1428571E+00 -0.6616561E-05  0.0000000E+00 -0.8517737E-01
  0.1040816E+01  0.0000000E+00  0.1428571E+00 -0.1155599E-04  0.0000000E+00 -0.8518148E-01
  0.1081633E+01  0.0000000E+00  0.1428571E+00 -0.1635032E-04  0.0000000E+00 -0.8518782E-01
  0.1122449E+01  0.0000000E+00  0.1428571E+00 -0.2091100E-04  0.0000000E+00 -0.8519631E-01
  0.1163265E+01  0.0000000E+00  0.1428571E+00 -0.2516115E-04  0.0000000E+00 -0.8520682E-01
  0.1204082E+01  0.0000000E+00  0.1428571E+00 -0.2903246E-04  0.0000000E+00 -0.8521920E-01
  0.1244898E+01  0.0000000E+00  0.1428571E+00 -0.3245324E-04  0.0000000E+00 -0.8523324E-01
  0.1285714E+01  0.0000000E+00  0.1428571E+00 -0.3536755E-04  0.0000000E+00 -0.8524873E-01
  0.1326531E+01  0.0000000E+00  0.1428571E+00 -0.3773425E-04  0.0000000E+00 -0.8526543E-01
  0.1367347E+01  0.0000000E+00  0.1428571E+00 -0.3952002E-04  0.0000000E+00 -0.8528307E-01
  0.1408163E+01  0.0000000E+00  0.1428571E+00 -0.4069993E-04  0.0000000E+00 -0.8530138E-01
  0.1448980E+01  0.0000000E+00  0.1428571E+00 -0.4126025E-04  0.0000000E+00 -0.8532009E-01
  0.1489796E+01  0.0000000E+00  0.1428571E+00 -0.4119885E-04  0.0000000E+00 -0.8533891E-01
  0.1530612E+01  0.0000000E+00  0.1428571E+00 -0.4052385E-04  0.0000000E+00 -0.8535755E-01
  0.1571429E+01  0.0000000E+00  0.1428571E+00 -0.3925235E-04  0.0000000E+00 -0.8537574E-01
  0.1612245E+01  0.0000000E+00  0.1428571E+00 -0.3740994E-04  0.0000000E+00 -0.8539322E-01
  0.1653061E+01  0.0000000E+00  0.1428571E+00 -0.3503011E-04  0.0000000E+00 -0.8540972E-01
  0.1693878E+01  0.0000000E+00  0.1428571E+00 -0.3215279E-04  0.0000000E+00 -0.8542503E-01
  0.1734694E+01  0.0000000E+00  0.1428571E+00 -0.2882314E-04  0.0000000E+00 -0.8543891E-01
  0.1775510E+01  0.0000000E+00  0.1428571E+00 -0.2509141E-04  0.0000000E+00 -0.8545118E-01
  0.1816326E+01  0.0000000E+00  0.1428571E+00 -0.2101291E-04  0.0000000E+00 -0.8546168E-01
  0.1857143E+01  0.0000000E+00  0.1428571E+00 -0.1664675E-04  0.0000000E+00 -0.8547025E-01
  0.1897959E+01  0.0000000E+00  0.1428571E+00 -0.1205401E-04  0.0000000E+00 -0.8547678E-01
  0.1938776E+01  0.0000000E+00  0.1428571E+00 -0.7297368E-05  0.0000000E+00 -0.8548118E-01
  0.1989796E+01  0.0000000E+00  0.1428571E+00 -0.2443115E-05  0.0000000E+00 -0.8548340E-01
  0.2040816E-01  0.0000000E+00  0.1836735E+00  0.2696645E-05  0.0000000E+00 -0.8541289E-01
  0.6122449E-01  0.0000000E+00  0.1836735E+00  0.8049090E-05  0.0000000E+00 -0.8541077E-01
  0.1020408E+00  0.0000000E+00  0.1836735E+00  0.1327193E-04  0.0000000E+00 -0.8540656E-01
  0.1428571E+00  0.0000000E+00  0.1836735E+00  0.1827610E-04  0.0000000E+00 -0.8540034E-01
  0.1836735E+00  0.0000000E+00  0.1836735E+00  0.2297466E-04  0.0000000E+00 -0.8539220E-01
  0.2244898E+00  0.0000000E+00  0.1836735E+00  0.2729036E-04  0.0000000E+00 -0.8538228E-01
  0.2653061E+00  0.0000000E+00  0.1836735E+00  0.3115128E-04  0.0000000E+00 -0.8537074E-01
  0.3061225E+00  0.0000000E+00  0.1836735E+00  0.3448213E-04  0.0000000E+00 -0.8535777E-01
  0.3469388E+00  0.0000000E+00  0.1836735E+00  0.3721984E-04  0.0000000E+00 -0.8534360E-01
  0.3877551E+00  0.0000000E+00  0.1836735E+00  0.3931260E-04  0.0000000E+00 -0.8532846E-01
  0.4285714E+00  0.0000000E+00  0.1836735E+00  0.4071651E-04  0.0000000E+00 -0.8531262E-01
  0.4693878E+00  0.0000000E+00  0.1836735E+00  0.4139668E-04  0.0000000E+00 -0.8529635E-01
  0.5102041E+00  0.0000000E+00  0.1836735E+00  0.4132983E-04  0.0000000E+00 -0.8527995E-01
  0.5510204E+00  0.0000000E+00  0.1836735E+00  0.4050601E-04  0.0000000E+00 -0.8526371E-01
  0.5918368E+00  0.0000000E+00  0.1836735E+00  0.3892902E-04  0.0000000E+00 -0.8524794E-01
  0.6326531E+00  0.0000000E+00  0.1836735E+00  0.3661647E-04  0.0000000E+00 -0.8523292E-01
  0.6734694E+00  0.0000000E+00  0.1836735E+00  0.3359982E-04  0.0000000E+00 -0.8521894E-01
  0.7142857E+00  0.0000000E+00  0.1836735E+00  0.2992439E-04  0.0000000E+00 -0.8520628E-01
  0.7551020E+00  0.0000000E+00  0.1836735E+00  0.2564917E-04  0.0000000E+00 -0.8519519E-01
  0.7959183E+00  0.0000000E+00  0.1836735E+00  0.2084559E-04  0.0000000E+00 -0.8518589E-01
  0.8367347E+00  0.0000000E+00  0.1836735E+00  0.1559545E-04  0.0000000E+00 -0.8517857E-01
  0.8775510E+00  0.0000000E+00  0.1836735E+00  0.9990856E-05  0.0000000E+00 -0.8517340E-01
  0.9183673E+00  0.0000000E+00  0.1836735E+00  0.4132879E-05  0.0000000E+00 -0.8517051E-01
  0.9591837E+00  0.0000000E+00  0.1836735E+00 -0.1871676E-05  0.0000000E+00 -0.8516996E-01
  0.1000000E+01  0.0000000E+00  0.1836735E+00 -0.7917331E-05  0.0000000E+00 -0.8517180E-01
  0.1040816E+01  0.0000000E+00  0.1836735E+00 -0.1389444E-04  0.0000000E+00 -0.8517602E-01
  0.1081633E+01  0.0000000E+00  0.1836735E+00 -0.1969438E-04  0.0000000E+00 -0.8518257E-01
  0.1122449E+01  0.0000000E+00  0.1836735E+00 -0.2521063E-04  0.0000000E+00 -0.8519136E-01
  0.1163265E+01  0.0000000E+00  0.1836735E+00 -0.3034915E-04  0.0000000E+00 -0.8520226E-01
  0.1204082E+01  0.0000000E+00  0.1836735E+00 -0.3502657E-04  0.0000000E+00 -0.8521509E-01
  0.1244898E+01  0.0000000E+00  0.1836735E+00 -0.3915764E-04  0.0000000E+00 -0.8522966E-01
  0.1285714E+01  0.0000000E+00  0.1836735E+00 -0.4267416E-04  0.0000000E+00 -0.8524574E-01
  0.1326531E+01  0.0000000E+00  0.1836735E+00 -0.4552649E-04  0.0000000E+00 -0.8526306E-01
  0.1367347E+01  0.0000000E+00  0.1836735E+00 -0.4767540E-04  0.0000000E+00 -0.8528137E-01
  0.1408163E+01  0.0000000E+00  0.1836735E+00 -0.4909147E-04  0.0000000E+00 -0.8530036E-01
  0.1448980E+01  0.0000000E+00  0.1836735E+00 -0.4975846E-04  0.0000000E+00 -0.8531976E-01
  0.1489796E+01  0.0000000E+00  0.1836735E+00 -0.4967448E-04  0.0000000E+00 -0.8533926E-01
  0.1530612E+01  0.0000000E+00  0.1836735E+00 -0.4885052E-04  0.0000000E+00 -0.8535857E-01
  0.1571429E+01  0.0000000E+00  0.1836735E+00 -0.4730823E-04  0.0000000E+00 -0.8537741E-01
  0.1612245E+01  0.0000000E+00  0.1836735E+00 -0.4507875E-04  0.0000000E+00 -0.8539550E-01
  0.1653061E+01  0.0000000E+00  0.1836735E+00 -0.4220253E-04  0.0000000E+00 -0.8541258E-01
  0.1693878E+01  0.0000000E+00  0.1836735E+00 -0.3872846E-04  0.0000000E+00 -0.8542841E-01
  0.1734694E+01  0.0000000E+00  0.1836735E+00 -0.3471186E-04  0.0000000E+00 -0.8544276E-01
  0.1775510E+01  0.0000000E+00  0.1836735E+00 -0.3021342E-04  0.0000000E+00 -0.8545545E-01
  0.1816326E+01  0.0000000E+00  0.1836735E+00 -0.2529923E-04  0.0000000E+00 -0.8546630E-01
  0.1857143E+01  0.0000000E+00  0.1836735E+00 -0.2004016E-04  0.0000000E+00 -0.8547515E-01
  0.1897959E+01  0.0000000E+00  0.1836735E+00 -0.1450965E-04  0.0000000E+00 -0.8548189E-01
  0.1938776E+01  0.0000000E+00  0.1836735E+00 -0.8783522E-05  0.0000000E+00 -0.8548644E-01
  0.1989796E+01  0.0000000E+00  0.1836735E+00 -0.2940847E-05  0.0000000E+00 -0.8548873E-01
  0.2040816E-01  0.0000000E+00  0.2244898E+00  0.3135499E-05  0.0000000E+00 -0.8541863E-01
  0.6122449E-01  0.0000000E+00  0.2244898E+00  0.9358669E-05  0.0000000E+00 -0.8541641E-01
  0.1020408E+00  0.0000000E+00  0.2244898E+00  0.1543209E-04  0.0000000E+00 -0.8541202E-01
  0.1428571E+00  0.0000000E+00  0.2244898E+00  0.2125288E-04  0.0000000E+00 -0.8540552E-01
  0.1836735E+00  0.0000000E+00  0.2244898E+00  0.2672116E-04  0.0000000E+00 -0.8539701E-01
  0.2244898E+00  0.0000000E+00  0.2244898E+00  0.3174684E-04  0.0000000E+00 -0.8538663E-01
  0.2653061E+00  0.0000000E+00  0.2244898E+00  0.3624591E-04  0.0000000E+00 -0.8537456E-01
  0.3061225E+00  0.0000000E+00  0.2244898E+00  0.4013163E-04  0.0000000E+00 -0.8536098E-01
  0.3469388E+00  0.0000000E+00  0.2244898E+00  0.4333041E-04  0.0000000E+00 -0.8534614E-01
  0.3877551E+00  0.0000000E+00  0.2244898E+00  0.4578108E-04  0.0000000E+00 -0.8533028E-01
  0.4285714E+00  0.0000000E+00  0.2244898E+00  0.4743171E-04  0.0000000E+00 -0.8531367E-01
  0.4693878E+00  0.0000000E+00  0.2244898E+00  0.4824099E-04  0.0000000E+00 -0.8529660E-01
  0.5102041E+00  0.0000000E+00  0.2244898E+00  0.4818109E-04  0.0000000E+00 -0.8527939E-01
  0.5510204E+00  0.0000000E+00  0.2244898E+00  0.4723955E-04  0.0000000E+00 -0.8526233E-01
  0.5918368E+00  0.0000000E+00  0.2244898E+00  0.4541989E-04  0.0000000E+00 -0.8524574E-01
  0.6326531E+00  0.0000000E+00  0.2244898E+00  0.4274179E-04  0.0000000E+00 -0.8522994E-01
  0.6734694E+00  0.0000000E+00  0.2244898E+00  0.3924116E-04  0.0000000E+00 -0.8521522E-01
  0.7142857E+00  0.0000000E+00  0.2244898E+00  0.3497037E-04  0.0000000E+00 -0.8520188E-01
  0.7551020E+00  0.0000000E+00  0.2244898E+00  0.2999807E-04  0.0000000E+00 -0.8519017E-01
  0.7959183E+00  0.0000000E+00  0.2244898E+00  0.2440751E-04  0.0000000E+00 -0.8518034E-01
  0.8367347E+00  0.0000000E+00  0.2244898E+00  0.1829371E-04  0.0000000E+00 -0.8517259E-01
  0.8775510E+00  0.0000000E+00  0.2244898E+00  0.1176501E-04  0.0000000E+00 -0.8516710E-01
  0.9183673E+00  0.0000000E+00  0.2244898E+00  0.4939545E-05  0.0000000E+00 -0.8516398E-01
  0.9591837E+00  0.0000000E+00  0.2244898E+00 -0.2057787E-05  0.0000000E+00 -0.8516333E-01
  0.1000000E+01  0.0000000E+00  0.2244898E+00 -0.9102653E-05  0.0000000E+00 -0.8516519E-01
  0.1040816E+01  0.0000000E+00  0.2244898E+00 -0.1606686E-04  0.0000000E+00 -0.8516954E-01
  0.1081633E+01  0.0000000E+00  0.2244898E+00 -0.2282289E-04  0.0000000E+00 -0.8517635E-01
  0.1122449E+01  0.0000000E+00  0.2244898E+00 -0.2924649E-04  0.0000000E+00 -0.8518549E-01
  0.1163265E+01  0.0000000E+00  0.2244898E+00 -0.3522694E-04  0.0000000E+00 -0.8519685E-01
  0.1204082E+01  0.0000000E+00  0.2244898E+00 -0.4066661E-04  0.0000000E+00 -0.8521023E-01
  0.1244898E+01  0.0000000E+00  0.2244898E+00 -0.4546818E-04  0.0000000E+00 -0.8522543E-01
  0.1285714E+01  0.0000000E+00  0.2244898E+00 -0.4955128E-04  0.0000000E+00 -0.8524220E-01
  0.1326531E+01  0.0000000E+00  0.2244898E+00 -0.5285781E-04  0.0000000E+00 -0.8526027E-01
  0.1367347E+01  0.0000000E+00  0.2244898E+00 -0.5534363E-04  0.0000000E+00 -0.8527936E-01
  0.1408163E+01  0.0000000E+00  0.2244898E+00 -0.5697627E-04  0.0000000E+00 -0.8529916E-01
  0.1448980E+01  0.0000000E+00  0.2244898E+00 -0.5773762E-04  0.0000000E+00 -0.8531937E-01
  0.1489796E+01  0.0000000E+00  0.2244898E+00 -0.5762597E-04  0.0000000E+00 -0.8533967E-01
  0.1530612E+01  0.0000000E+00  0.2244898E+00 -0.5665516E-04  0.0000000E+00 -0.8535978E-01
  0.1571429E+01  0.0000000E+00  0.2244898E+00 -0.5485204E-04  0.0000000E+00 -0.8537938E-01
  0.1612245E+01  0.0000000E+00  0.2244898E+00 -0.5225396E-04  0.0000000E+00 -0.8539819E-01
  0.1653061E+01  0.0000000E+00  0.2244898E+00 -0.4890809E-04  0.0000000E+00 -0.8541594E-01
  0.1693878E+01  0.0000000E+00  0.2244898E+00 -0.4487128E-04  0.0000000E+00 -0.8543239E-01
  0.1734694E+01  0.0000000E+00  0.2244898E+00 -0.4020858E-04  0.0000000E+00 -0.8544730E-01
  0.1775510E+01  0.0000000E+00  0.2244898E+00 -0.3499116E-04  0.0000000E+00 -0.8546047E-01
  0.1816326E+01  0.0000000E+00  0.2244898E+00 -0.2929548E-04  0.0000000E+00 -0.8547173E-01
  0.1857143E+01  0.0000000E+00  0.2244898E+00 -0.2320280E-04  0.0000000E+00 -0.8548091E-01
  0.1897959E+01  0.0000000E+00  0.2244898E+00 -0.1679750E-04  0.0000000E+00 -0.8548791E-01
  0.1938776E+01  0.0000000E+00  0.2244898E+00 -0.1016759E-04  0.0000000E+00 -0.8549262E-01
  0.1989796E+01  0.0000000E+00  0.2244898E+00 -0.3404144E-05  0.0000000E+00 -0.8549500E-01
  0.2040816E-01  0.0000000E+00  0.2653061E+00  0.3559663E-05  0.0000000E+00 -0.8542521E-01
  0.6122449E-01  0.0000000E+00  0.2653061E+00  0.1062481E-04  0.0000000E+00 -0.8542288E-01
  0.1020408E+00  0.0000000E+00  0.2653061E+00  0.1752117E-04  0.0000000E+00 -0.8541827E-01
  0.1428571E+00  0.0000000E+00  0.2653061E+00  0.2413305E-04  0.0000000E+00 -0.8541145E-01
  0.1836735E+00  0.0000000E+00  0.2653061E+00  0.3034824E-04  0.0000000E+00 -0.8540252E-01
  0.2244898E+00  0.0000000E+00  0.2653061E+00  0.3606450E-04  0.0000000E+00 -0.8539162E-01
  0.2653061E+00  0.0000000E+00  0.2653061E+00  0.4118615E-04  0.0000000E+00 -0.8537894E-01
  0.3061225E+00  0.0000000E+00  0.2653061E+00  0.4561533E-04  0.0000000E+00 -0.8536467E-01
  0.3469388E+00  0.0000000E+00  0.2653061E+00  0.4926810E-04  0.0000000E+00 -0.8534906E-01
  0.3877551E+00  0.0000000E+00  0.2653061E+00  0.5207392E-04  0.0000000E+00 -0.8533237E-01
  0.4285714E+00  0.0000000E+00  0.2653061E+00  0.5397272E-04  0.0000000E+00 -0.8531488E-01
  0.4693878E+00  0.0000000E+00  0.2653061E+00  0.5491655E-04  0.0000000E+00 -0.8529690E-01
  0.5102041E+00  0.0000000E+00  0.2653061E+00  0.5487266E-04  0.0000000E+00 -0.8527875E-01
  0.5510204E+00  0.0000000E+00  0.2653061E+00  0.5382565E-04  0.0000000E+00 -0.8526075E-01
  0.5918368E+00  0.0000000E+00  0.2653061E+00  0.5177833E-04  0.0000000E+00 -0.8524323E-01
  0.6326531E+00  0.0000000E+00  0.2653061E+00  0.4875190E-04  0.0000000E+00 -0.8522653E-01
  0.6734694E+00  0.0000000E+00  0.2653061E+00  0.4478632E-04  0.0000000E+00 -0.8521096E-01
  0.7142857E+00  0.0000000E+00  0.2653061E+00  0.3994056E-04  0.0000000E+00 -0.8519683E-01
  0.7551020E+00  0.0000000E+00  0.2653061E+00  0.3429251E-04  0.0000000E+00 -0.8518441E-01
  0.7959183E+00  0.0000000E+00  0.2653061E+00  0.2793698E-04  0.0000000E+00 -0.8517397E-01
  0.8367347E+00  0.0000000E+00  0.2653061E+00  0.2098220E-04  0.0000000E+00 -0.8516572E-01
  0.8775510E+00  0.0000000E+00  0.2653061E+00  0.1355219E-04  0.0000000E+00 -0.8515984E-01
  0.9183673E+00  0.0000000E+00  0.2653061E+00  0.5782255E-05  0.0000000E+00 -0.8515647E-01
  0.9591837E+00  0.0000000E+00  0.2653061E+00 -0.2184670E-05  0.0000000E+00 -0.8515570E-01
  0.1000000E+01  0.0000000E+00  0.2653061E+00 -0.1020531E-04  0.0000000E+00 -0.8515758E-01
  0.1040816E+01  0.0000000E+00  0.2653061E+00 -0.1813280E-04  0.0000000E+00 -0.8516209E-01
  0.1081633E+01  0.0000000E+00  0.2653061E+00 -0.2582115E-04  0.0000000E+00 -0.8516918E-01
  0.1122449E+01  0.0000000E+00  0.2653061E+00 -0.3312861E-04  0.0000000E+00 -0.8517875E-01
  0.1163265E+01  0.0000000E+00  0.2653061E+00 -0.3992743E-04  0.0000000E+00 -0.8519063E-01
  0.1204082E+01  0.0000000E+00  0.2653061E+00 -0.4610540E-04  0.0000000E+00 -0.8520465E-01
  0.1244898E+01  0.0000000E+00  0.2653061E+00 -0.5155478E-04  0.0000000E+00 -0.8522058E-01
  0.1285714E+01  0.0000000E+00  0.2653061E+00 -0.5618351E-04  0.0000000E+00 -0.8523814E-01
  0.1326531E+01  0.0000000E+00  0.2653061E+00 -0.5992477E-04  0.0000000E+00 -0.8525707E-01