title = "dataset feddes"
variables = "x", "y", "z", "vx", "vy", "vz"
zone t = "velocities, solution time =  3.200E+01 days        " i =   49, j =   49, k =    1,  f=point
  0.2040816E-01  0.0000000E+00  0.2040816E-01  0.3080247E-06  0.0000000E+00 -0.8567074E-01
  0.6122449E-01  0.0000000E+00  0.2040816E-01  0.9193748E-06  0.0000000E+00 -0.8566935E-01
  0.1020408E+00  0.0000000E+00  0.2040816E-01  0.1517291E-05  0.0000000E+00 -0.8566658E-01
  0.1428571E+00  0.0000000E+00  0.2040816E-01  0.2090600E-05  0.0000000E+00 -0.8566248E-01
  0.1836735E+00  0.0000000E+00  0.2040816E-01  0.2629186E-05  0.0000000E+00 -0.8565711E-01
  0.2244898E+00  0.0000000E+00  0.2040816E-01  0.3126059E-05  0.0000000E+00 -0.8565057E-01
  0.2653061E+00  0.0000000E+00  0.2040816E-01  0.3572153E-05  0.0000000E+00 -0.8564296E-01
  0.3061225E+00  0.0000000E+00  0.2040816E-01  0.3958732E-05  0.0000000E+00 -0.8563440E-01
  0.3469388E+00  0.0000000E+00  0.2040816E-01  0.4279671E-05  0.0000000E+00 -0.8562504E-01
  0.3877551E+00  0.0000000E+00  0.2040816E-01  0.4529287E-05  0.0000000E+00 -0.8561503E-01
  0.4285714E+00  0.0000000E+00  0.2040816E-01  0.4702343E-05  0.0000000E+00 -0.8560453E-01
  0.4693878E+00  0.0000000E+00  0.2040816E-01  0.4794842E-05  0.0000000E+00 -0.8559374E-01
  0.5102041E+00  0.0000000E+00  0.2040816E-01  0.4804272E-05  0.0000000E+00 -0.8558283E-01
  0.5510204E+00  0.0000000E+00  0.2040816E-01  0.4729520E-05  0.0000000E+00 -0.8557200E-01
  0.5918368E+00  0.0000000E+00  0.2040816E-01  0.4570846E-05  0.0000000E+00 -0.8556143E-01
  0.6326531E+00  0.0000000E+00  0.2040816E-01  0.4329942E-05  0.0000000E+00 -0.8555132E-01
  0.6734694E+00  0.0000000E+00  0.2040816E-01  0.4009996E-05  0.0000000E+00 -0.8554184E-01
  0.7142857E+00  0.0000000E+00  0.2040816E-01  0.3615700E-05  0.0000000E+00 -0.8553317E-01
  0.7551020E+00  0.0000000E+00  0.2040816E-01  0.3153195E-05  0.0000000E+00 -0.8552548E-01
  0.7959183E+00  0.0000000E+00  0.2040816E-01  0.2629984E-05  0.0000000E+00 -0.8551891E-01
  0.8367347E+00  0.0000000E+00  0.2040816E-01  0.2054810E-05  0.0000000E+00 -0.8551359E-01
  0.8775510E+00  0.0000000E+00  0.2040816E-01  0.1437509E-05  0.0000000E+00 -0.8550962E-01
  0.9183673E+00  0.0000000E+00  0.2040816E-01  0.7888290E-06  0.0000000E+00 -0.8550709E-01
  0.9591837E+00  0.0000000E+00  0.2040816E-01  0.1201152E-06  0.0000000E+00 -0.8550606E-01
  0.1000000E+01  0.0000000E+00  0.2040816E-01 -0.5565926E-06  0.0000000E+00 -0.8550655E-01
  0.1040816E+01  0.0000000E+00  0.2040816E-01 -0.1229048E-05  0.0000000E+00 -0.8550858E-01
  0.1081633E+01  0.0000000E+00  0.2040816E-01 -0.1886579E-05  0.0000000E+00 -0.8551212E-01
  0.1122449E+01  0.0000000E+00  0.2040816E-01 -0.2516618E-05  0.0000000E+00 -0.8551713E-01
  0.1163265E+01  0.0000000E+00  0.2040816E-01 -0.3107012E-05  0.0000000E+00 -0.8552352E-01
  0.1204082E+01  0.0000000E+00  0.2040816E-01 -0.3649778E-05  0.0000000E+00 -0.8553119E-01
  0.1244898E+01  0.0000000E+00  0.2040816E-01 -0.4134914E-05  0.0000000E+00 -0.8554004E-01
  0.1285714E+01  0.0000000E+00  0.2040816E-01 -0.4553066E-05  0.0000000E+00 -0.8554991E-01
  0.1326531E+01  0.0000000E+00  0.2040816E-01 -0.4898488E-05  0.0000000E+00 -0.8556065E-01
  0.1367347E+01  0.0000000E+00  0.2040816E-01 -0.5166234E-05  0.0000000E+00 -0.8557209E-01
  0.1408163E+01  0.0000000E+00  0.2040816E-01 -0.5352095E-05  0.0000000E+00 -0.8558404E-01
  0.1448980E+01  0.0000000E+00  0.2040816E-01 -0.5453469E-05  0.0000000E+00 -0.8559632E-01
  0.1489796E+01  0.0000000E+00  0.2040816E-01 -0.5469480E-05  0.0000000E+00 -0.8560873E-01
  0.1530612E+01  0.0000000E+00  0.2040816E-01 -0.5400731E-05  0.0000000E+00 -0.8562109E-01
  0.1571429E+01  0.0000000E+00  0.2040816E-01 -0.5249114E-05  0.0000000E+00 -0.8563319E-01
  0.1612245E+01  0.0000000E+00  0.2040816E-01 -0.5017709E-05  0.0000000E+00 -0.8564486E-01
  0.1653061E+01  0.0000000E+00  0.2040816E-01 -0.4710725E-05  0.0000000E+00 -0.8565592E-01
  0.1693878E+01  0.0000000E+00  0.2040816E-01 -0.4333435E-05  0.0000000E+00 -0.8566619E-01
  0.1734694E+01  0.0000000E+00  0.2040816E-01 -0.3892077E-05  0.0000000E+00 -0.8567554E-01
  0.1775510E+01  0.0000000E+00  0.2040816E-01 -0.3393676E-05  0.0000000E+00 -0.8568382E-01
  0.1816326E+01  0.0000000E+00  0.2040816E-01 -0.2845872E-05  0.0000000E+00 -0.8569091E-01
  0.1857143E+01  0.0000000E+00  0.2040816E-01 -0.2256866E-05  0.0000000E+00 -0.8569671E-01
  0.1897959E+01  0.0000000E+00  0.2040816E-01 -0.1635379E-05  0.0000000E+00 -0.8570114E-01
  0.1938776E+01  0.0000000E+00  0.2040816E-01 -0.9905188E-06  0.0000000E+00 -0.8570412E-01
  0.1989796E+01  0.0000000E+00  0.2040816E-01 -0.3315793E-06  0.0000000E+00 -0.8570563E-01
  0.2040816E-01  0.0000000E+00  0.6122449E-01  0.8447709E-06  0.0000000E+00 -0.8567196E-01
  0.6122449E-01  0.0000000E+00  0.6122449E-01  0.2520883E-05  0.0000000E+00 -0.8567055E-01
  0.1020408E+00  0.0000000E+00  0.6122449E-01  0.4159094E-05  0.0000000E+00 -0.8566774E-01
  0.1428571E+00  0.0000000E+00  0.6122449E-01  0.5730845E-05  0.0000000E+00 -0.8566358E-01
  0.1836735E+00  0.0000000E+00  0.6122449E-01  0.7208145E-05  0.0000000E+00 -0.8565814E-01
  0.2244898E+00  0.0000000E+00  0.6122449E-01  0.8570260E-05  0.0000000E+00 -0.8565150E-01
  0.2653061E+00  0.0000000E+00  0.6122449E-01  0.9793266E-05  0.0000000E+00 -0.8564378E-01
  0.3061225E+00  0.0000000E+00  0.6122449E-01  0.1085383E-04  0.0000000E+00 -0.8563510E-01
  0.3469388E+00  0.0000000E+00  0.6122449E-01  0.1173458E-04  0.0000000E+00 -0.8562560E-01
  0.3877551E+00  0.0000000E+00  0.6122449E-01  0.1241969E-04  0.0000000E+00 -0.8561544E-01
  0.4285714E+00  0.0000000E+00  0.6122449E-01  0.1289494E-04  0.0000000E+00 -0.8560479E-01
  0.4693878E+00  0.0000000E+00  0.6122449E-01  0.1314945E-04  0.0000000E+00 -0.8559383E-01
  0.5102041E+00  0.0000000E+00  0.6122449E-01  0.1317626E-04  0.0000000E+00 -0.8558276E-01
  0.5510204E+00  0.0000000E+00  0.6122449E-01  0.1297223E-04  0.0000000E+00 -0.8557176E-01
  0.5918368E+00  0.0000000E+00  0.6122449E-01  0.1253802E-04  0.0000000E+00 -0.8556102E-01
  0.6326531E+00  0.0000000E+00  0.6122449E-01  0.1187821E-04  0.0000000E+00 -0.8555075E-01
  0.6734694E+00  0.0000000E+00  0.6122449E-01  0.1100152E-04  0.0000000E+00 -0.8554111E-01
  0.7142857E+00  0.0000000E+00  0.6122449E-01  0.9920803E-05  0.0000000E+00 -0.8553231E-01
  0.7551020E+00  0.0000000E+00  0.6122449E-01  0.8652863E-05  0.0000000E+00 -0.8552449E-01
  0.7959183E+00  0.0000000E+00  0.6122449E-01  0.7218264E-05  0.0000000E+00 -0.8551780E-01
  0.8367347E+00  0.0000000E+00  0.6122449E-01  0.5640993E-05  0.0000000E+00 -0.8551239E-01
  0.8775510E+00  0.0000000E+00  0.6122449E-01  0.3948045E-05  0.0000000E+00 -0.8550834E-01
  0.9183673E+00  0.0000000E+00  0.6122449E-01  0.2168906E-05  0.0000000E+00 -0.8550576E-01
  0.9591837E+00  0.0000000E+00  0.6122449E-01  0.3350572E-06  0.0000000E+00 -0.8550470E-01
  0.1000000E+01  0.0000000E+00  0.6122449E-01 -0.1521385E-05  0.0000000E+00 -0.8550519E-01
  0.1040816E+01  0.0000000E+00  0.6122449E-01 -0.3366176E-05  0.0000000E+00 -0.8550724E-01
  0.1081633E+01  0.0000000E+00  0.6122449E-01 -0.5168837E-05  0.0000000E+00 -0.8551083E-01
  0.1122449E+01  0.0000000E+00  0.6122449E-01 -0.6896887E-05  0.0000000E+00 -0.8551589E-01
  0.1163265E+01  0.0000000E+00  0.6122449E-01 -0.8516798E-05  0.0000000E+00 -0.8552237E-01
  0.1204082E+01  0.0000000E+00  0.6122449E-01 -0.1000477E-04  0.0000000E+00 -0.8553016E-01
  0.1244898E+01  0.0000000E+00  0.6122449E-01 -0.1133446E-04  0.0000000E+00 -0.8553913E-01
  0.1285714E+01  0.0000000E+00  0.6122449E-01 -0.1248099E-04  0.0000000E+00 -0.8554914E-01
  0.1326531E+01  0.0000000E+00  0.6122449E-01 -0.1342793E-04  0.0000000E+00 -0.8556003E-01
  0.1367347E+01  0.0000000E+00  0.6122449E-01 -0.1416147E-04  0.0000000E+00 -0.8557163E-01
  0.1408163E+01  0.0000000E+00  0.6122449E-01 -0.1467032E-04  0.0000000E+00 -0.8558375E-01
  0.1448980E+01  0.0000000E+00  0.6122449E-01 -0.1494756E-04  0.0000000E+00 -0.8559619E-01
  0.1489796E+01  0.0000000E+00  0.6122449E-01 -0.1499081E-04  0.0000000E+00 -0.8560878E-01
  0.1530612E+01  0.0000000E+00  0.6122449E-01 -0.1480170E-04  0.0000000E+00 -0.8562130E-01
  0.1571429E+01  0.0000000E+00  0.6122449E-01 -0.1438545E-04  0.0000000E+00 -0.8563356E-01
  0.1612245E+01  0.0000000E+00  0.6122449E-01 -0.1375059E-04  0.0000000E+00 -0.8564539E-01
  0.1653061E+01  0.0000000E+00  0.6122449E-01 -0.1290873E-04  0.0000000E+00 -0.8565659E-01
  0.1693878E+01  0.0000000E+00  0.6122449E-01 -0.1187434E-04  0.0000000E+00 -0.8566700E-01
  0.1734694E+01  0.0000000E+00  0.6122449E-01 -0.1066449E-04  0.0000000E+00 -0.8567647E-01
  0.1775510E+01  0.0000000E+00  0.6122449E-01 -0.9298464E-05  0.0000000E+00 -0.8568486E-01
  0.1816326E+01  0.0000000E+00  0.6122449E-01 -0.7797271E-05  0.0000000E+00 -0.8569204E-01
  0.1857143E+01  0.0000000E+00  0.6122449E-01 -0.6183347E-05  0.0000000E+00 -0.8569792E-01
  0.1897959E+01  0.0000000E+00  0.6122449E-01 -0.4480495E-05  0.0000000E+00 -0.8570240E-01
  0.1938776E+01  0.0000000E+00  0.6122449E-01 -0.2713624E-05  0.0000000E+00 -0.8570542E-01
  0.1989796E+01  0.0000000E+00  0.6122449E-01 -0.9084987E-06  0.0000000E+00 -0.8570694E-01
  0.2040816E-01  0.0000000E+00  0.1020408E+00  0.1269008E-05  0.0000000E+00 -0.8567408E-01
  0.6122449E-01  0.0000000E+00  0.1020408E+00  0.3787276E-05  0.0000000E+00 -0.8567263E-01
  0.1020408E+00  0.0000000E+00  0.1020408E+00  0.6247135E-05  0.0000000E+00 -0.8566975E-01
  0.1428571E+00  0.0000000E+00  0.1020408E+00  0.8608143E-05  0.0000000E+00 -0.8566549E-01
  0.1836735E+00  0.0000000E+00  0.1020408E+00  0.1082867E-04  0.0000000E+00 -0.8565992E-01
  0.2244898E+00  0.0000000E+00  0.1020408E+00  0.1287538E-04  0.0000000E+00 -0.8565312E-01
  0.2653061E+00  0.0000000E+00  0.1020408E+00  0.1471342E-04  0.0000000E+00 -0.8564521E-01
  0.3061225E+00  0.0000000E+00  0.1020408E+00  0.1630871E-04  0.0000000E+00 -0.8563631E-01
  0.3469388E+00  0.0000000E+00  0.1020408E+00  0.1763426E-04  0.0000000E+00 -0.8562657E-01
  0.3877551E+00  0.0000000E+00  0.1020408E+00  0.1866595E-04  0.0000000E+00 -0.8561615E-01
  0.4285714E+00  0.0000000E+00  0.1020408E+00  0.1938253E-04  0.0000000E+00 -0.8560523E-01
  0.4693878E+00  0.0000000E+00  0.1020408E+00  0.1976771E-04  0.0000000E+00 -0.8559399E-01
  0.5102041E+00  0.0000000E+00  0.1020408E+00  0.1981089E-04  0.0000000E+00 -0.8558262E-01
  0.5510204E+00  0.0000000E+00  0.1020408E+00  0.1950710E-04  0.0000000E+00 -0.8557133E-01
  0.5918368E+00  0.0000000E+00  0.1020408E+00  0.1885716E-04  0.0000000E+00 -0.8556030E-01
  0.6326531E+00  0.0000000E+00  0.1020408E+00  0.1786786E-04  0.0000000E+00 -0.8554974E-01
  0.6734694E+00  0.0000000E+00  0.1020408E+00  0.1655219E-04  0.0000000E+00 -0.8553985E-01
  0.7142857E+00  0.0000000E+00  0.1020408E+00  0.1492936E-04  0.0000000E+00 -0.8553079E-01
  0.7551020E+00  0.0000000E+00  0.1020408E+00  0.1302458E-04  0.0000000E+00 -0.8552274E-01
  0.7959183E+00  0.0000000E+00  0.1020408E+00  0.1086872E-04  0.0000000E+00 -0.8551586E-01
  0.8367347E+00  0.0000000E+00  0.1020408E+00  0.8497895E-05  0.0000000E+00 -0.8551028E-01
  0.8775510E+00  0.0000000E+00  0.1020408E+00  0.5952741E-05  0.0000000E+00 -0.8550611E-01
  0.9183673E+00  0.0000000E+00  0.1020408E+00  0.3277435E-05  0.0000000E+00 -0.8550344E-01
  0.9591837E+00  0.0000000E+00  0.1020408E+00  0.5200978E-06  0.0000000E+00 -0.8550233E-01
  0.1000000E+01  0.0000000E+00  0.1020408E+00 -0.2271649E-05  0.0000000E+00 -0.8550281E-01
  0.1040816E+01  0.0000000E+00  0.1020408E+00 -0.5046550E-05  0.0000000E+00 -0.8550490E-01
  0.1081633E+01  0.0000000E+00  0.1020408E+00 -0.7756487E-05  0.0000000E+00 -0.8550856E-01
  0.1122449E+01  0.0000000E+00  0.1020408E+00 -0.1035455E-04  0.0000000E+00 -0.8551374E-01
  0.1163265E+01  0.0000000E+00  0.1020408E+00 -0.1279086E-04  0.0000000E+00 -0.8552037E-01
  0.1204082E+01  0.0000000E+00  0.1020408E+00 -0.1502690E-04  0.0000000E+00 -0.8552834E-01
  0.1244898E+01  0.0000000E+00  0.1020408E+00 -0.1702429E-04  0.0000000E+00 -0.8553753E-01
  0.1285714E+01  0.0000000E+00  0.1020408E+00 -0.1874687E-04  0.0000000E+00 -0.8554778E-01
  0.1326531E+01  0.0000000E+00  0.1020408E+00 -0.2016896E-04  0.0000000E+00 -0.8555894E-01
  0.1367347E+01  0.0000000E+00  0.1020408E+00 -0.2126954E-04  0.0000000E+00 -0.8557081E-01
  0.1408163E+01  0.0000000E+00  0.1020408E+00 -0.2203208E-04  0.0000000E+00 -0.8558322E-01
  0.1448980E+01  0.0000000E+00  0.1020408E+00 -0.2244651E-04  0.0000000E+00 -0.8559597E-01
  0.1489796E+01  0.0000000E+00  0.1020408E+00 -0.2250944E-04  0.0000000E+00 -0.8560885E-01
  0.1530612E+01  0.0000000E+00  0.1020408E+00 -0.2222339E-04  0.0000000E+00 -0.8562166E-01
  0.1571429E+01  0.0000000E+00  0.1020408E+00 -0.2159626E-04  0.0000000E+00 -0.8563421E-01
  0.1612245E+01  0.0000000E+00  0.1020408E+00 -0.2064106E-04  0.0000000E+00 -0.8564630E-01
  0.1653061E+01  0.0000000E+00  0.1020408E+00 -0.1937548E-04  0.0000000E+00 -0.8565776E-01
  0.1693878E+01  0.0000000E+00  0.1020408E+00 -0.1782135E-04  0.0000000E+00 -0.8566841E-01
  0.1734694E+01  0.0000000E+00  0.1020408E+00 -0.1600424E-04  0.0000000E+00 -0.8567809E-01
  0.1775510E+01  0.0000000E+00  0.1020408E+00 -0.1395313E-04  0.0000000E+00 -0.8568666E-01
  0.1816326E+01  0.0000000E+00  0.1020408E+00 -0.1169966E-04  0.0000000E+00 -0.8569400E-01
  0.1857143E+01  0.0000000E+00  0.1020408E+00 -0.9277555E-05  0.0000000E+00 -0.8570000E-01
  0.1897959E+01  0.0000000E+00  0.1020408E+00 -0.6722375E-05  0.0000000E+00 -0.8570458E-01
  0.1938776E+01  0.0000000E+00  0.1020408E+00 -0.4071222E-05  0.0000000E+00 -0.8570766E-01
  0.1989796E+01  0.0000000E+00  0.1020408E+00 -0.1363107E-05  0.0000000E+00 -0.8570922E-01
  0.2040816E-01  0.0000000E+00  0.1428571E+00  0.1640569E-05  0.0000000E+00 -0.8567696E-01
  0.6122449E-01  0.0000000E+00  0.1428571E+00  0.4897235E-05  0.0000000E+00 -0.8567546E-01
  0.1020408E+00  0.0000000E+00  0.1428571E+00  0.8077884E-05  0.0000000E+00 -0.8567249E-01
  0.1428571E+00  0.0000000E+00  0.1428571E+00  0.1113097E-04  0.0000000E+00 -0.8566810E-01
  0.1836735E+00  0.0000000E+00  0.1428571E+00  0.1400385E-04  0.0000000E+00 -0.8566234E-01
  0.2244898E+00  0.0000000E+00  0.1428571E+00  0.1665224E-04  0.0000000E+00 -0.8565532E-01
  0.2653061E+00  0.0000000E+00  0.1428571E+00  0.1903147E-04  0.0000000E+00 -0.8564715E-01
  0.3061225E+00  0.0000000E+00  0.1428571E+00  0.2109810E-04  0.0000000E+00 -0.8563795E-01
  0.3469388E+00  0.0000000E+00  0.1428571E+00  0.2281669E-04  0.0000000E+00 -0.8562789E-01
  0.3877551E+00  0.0000000E+00  0.1428571E+00  0.2415565E-04  0.0000000E+00 -0.8561712E-01
  0.4285714E+00  0.0000000E+00  0.1428571E+00  0.2508751E-04  0.0000000E+00 -0.8560582E-01
  0.4693878E+00  0.0000000E+00  0.1428571E+00  0.2559108E-04  0.0000000E+00 -0.8559419E-01
  0.5102041E+00  0.0000000E+00  0.1428571E+00  0.2565235E-04  0.0000000E+00 -0.8558243E-01
  0.5510204E+00  0.0000000E+00  0.1428571E+00  0.2526458E-04  0.0000000E+00 -0.8557073E-01
  0.5918368E+00  0.0000000E+00  0.1428571E+00  0.2442850E-04  0.0000000E+00 -0.8555931E-01
  0.6326531E+00  0.0000000E+00  0.1428571E+00  0.2315265E-04  0.0000000E+00 -0.8554837E-01
  0.6734694E+00  0.0000000E+00  0.1428571E+00  0.2145365E-04  0.0000000E+00 -0.8553810E-01
  0.7142857E+00  0.0000000E+00  0.1428571E+00  0.1935617E-04  0.0000000E+00 -0.8552871E-01
  0.7551020E+00  0.0000000E+00  0.1428571E+00  0.1689273E-04  0.0000000E+00 -0.8552035E-01
  0.7959183E+00  0.0000000E+00  0.1428571E+00  0.1410322E-04  0.0000000E+00 -0.8551320E-01
  0.8367347E+00  0.0000000E+00  0.1428571E+00  0.1103445E-04  0.0000000E+00 -0.8550740E-01
  0.8775510E+00  0.0000000E+00  0.1428571E+00  0.7739179E-05  0.0000000E+00 -0.8550305E-01
  0.9183673E+00  0.0000000E+00  0.1428571E+00  0.4274587E-05  0.0000000E+00 -0.8550025E-01
  0.9591837E+00  0.0000000E+00  0.1428571E+00  0.7032347E-06  0.0000000E+00 -0.8549908E-01
  0.1000000E+01  0.0000000E+00  0.1428571E+00 -0.2912389E-05  0.0000000E+00 -0.8549955E-01
  0.1040816E+01  0.0000000E+00  0.1428571E+00 -0.6507053E-05  0.0000000E+00 -0.8550168E-01
  0.1081633E+01  0.0000000E+00  0.1428571E+00 -0.1001680E-04  0.0000000E+00 -0.8550545E-01
  0.1122449E+01  0.0000000E+00  0.1428571E+00 -0.1338072E-04  0.0000000E+00 -0.8551079E-01
  0.1163265E+01  0.0000000E+00  0.1428571E+00 -0.1653538E-04  0.0000000E+00 -0.8551763E-01
  0.1204082E+01  0.0000000E+00  0.1428571E+00 -0.1942928E-04  0.0000000E+00 -0.8552585E-01
  0.1244898E+01  0.0000000E+00  0.1428571E+00 -0.2201305E-04  0.0000000E+00 -0.8553534E-01
  0.1285714E+01  0.0000000E+00  0.1428571E+00 -0.2424073E-04  0.0000000E+00 -0.8554592E-01
  0.1326531E+01  0.0000000E+00  0.1428571E+00 -0.2607861E-04  0.0000000E+00 -0.8555744E-01
  0.1367347E+01  0.0000000E+00  0.1428571E+00 -0.2749943E-04  0.0000000E+00 -0.8556969E-01
  0.1408163E+01  0.0000000E+00  0.1428571E+00 -0.2848217E-04  0.0000000E+00 -0.8558250E-01
  0.1448980E+01  0.0000000E+00  0.1428571E+00 -0.2901426E-04  0.0000000E+00 -0.8559565E-01
  0.1489796E+01  0.0000000E+00  0.1428571E+00 -0.2909165E-04  0.0000000E+00 -0.8560893E-01
  0.1530612E+01  0.0000000E+00  0.1428571E+00 -0.2871788E-04  0.0000000E+00 -0.8562215E-01
  0.1571429E+01  0.0000000E+00  0.1428571E+00 -0.2790340E-04  0.0000000E+00 -0.8563508E-01
  0.1612245E+01  0.0000000E+00  0.1428571E+00 -0.2666526E-04  0.0000000E+00 -0.8564755E-01
  0.1653061E+01  0.0000000E+00  0.1428571E+00 -0.2502670E-04  0.0000000E+00 -0.8565935E-01
  0.1693878E+01  0.0000000E+00  0.1428571E+00 -0.2301624E-04  0.0000000E+00 -0.8567031E-01
  0.1734694E+01  0.0000000E+00  0.1428571E+00 -0.2066701E-04  0.0000000E+00 -0.8568028E-01
  0.1775510E+01  0.0000000E+00  0.1428571E+00 -0.1801630E-04  0.0000000E+00 -0.8568910E-01
  0.1816326E+01  0.0000000E+00  0.1428571E+00 -0.1510507E-04  0.0000000E+00 -0.8569666E-01
  0.1857143E+01  0.0000000E+00  0.1428571E+00 -0.1197701E-04  0.0000000E+00 -0.8570283E-01
  0.1897959E+01  0.0000000E+00  0.1428571E+00 -0.8677953E-05  0.0000000E+00 -0.8570754E-01
  0.1938776E+01  0.0000000E+00  0.1428571E+00 -0.5255448E-05  0.0000000E+00 -0.8571072E-01
  0.1989796E+01  0.0000000E+00  0.1428571E+00 -0.1759664E-05  0.0000000E+00 -0.8571232E-01
  0.2040816E-01  0.0000000E+00  0.1836735E+00  0.1980436E-05  0.0000000E+00 -0.8568052E-01
  0.6122449E-01  0.0000000E+00  0.1836735E+00  0.5911928E-05  0.0000000E+00 -0.8567897E-01
  0.1020408E+00  0.0000000E+00  0.1836735E+00  0.9751888E-05  0.0000000E+00 -0.8567588E-01
  0.1428571E+00  0.0000000E+00  0.1836735E+00  0.1343837E-04  0.0000000E+00 -0.8567132E-01
  0.1836735E+00  0.0000000E+00  0.1836735E+00  0.1690885E-04  0.0000000E+00 -0.8566534E-01
  0.2244898E+00  0.0000000E+00  0.1836735E+00  0.2010929E-04  0.0000000E+00 -0.8565805E-01
  0.2653061E+00  0.0000000E+00  0.1836735E+00  0.2298594E-04  0.0000000E+00 -0.8564955E-01
  0.3061225E+00  0.0000000E+00  0.1836735E+00  0.2548684E-04  0.0000000E+00 -0.8563999E-01
  0.3469388E+00  0.0000000E+00  0.1836735E+00  0.2756869E-04  0.0000000E+00 -0.8562952E-01
  0.3877551E+00  0.0000000E+00  0.1836735E+00  0.2919300E-04  0.0000000E+00 -0.8561832E-01
  0.4285714E+00  0.0000000E+00  0.1836735E+00  0.3032644E-04  0.0000000E+00 -0.8560656E-01
  0.4693878E+00  0.0000000E+00  0.1836735E+00  0.3094313E-04  0.0000000E+00 -0.8559445E-01
  0.5102041E+00  0.0000000E+00  0.1836735E+00  0.3102568E-04  0.0000000E+00 -0.8558219E-01
  0.5510204E+00  0.0000000E+00  0.1836735E+00  0.3056546E-04  0.0000000E+00 -0.8556999E-01
  0.5918368E+00  0.0000000E+00  0.1836735E+00  0.2956291E-04  0.0000000E+00 -0.8555808E-01
  0.6326531E+00  0.0000000E+00  0.1836735E+00  0.2802793E-04  0.0000000E+00 -0.8554666E-01
  0.6734694E+00  0.0000000E+00  0.1836735E+00  0.2598026E-04  0.0000000E+00 -0.8553594E-01
  0.7142857E+00  0.0000000E+00  0.1836735E+00  0.2344944E-04  0.0000000E+00 -0.8552611E-01
  0.7551020E+00  0.0000000E+00  0.1836735E+00  0.2047457E-04  0.0000000E+00 -0.8551737E-01
  0.7959183E+00  0.0000000E+00  0.1836735E+00  0.1710384E-04  0.0000000E+00 -0.8550989E-01
  0.8367347E+00  0.0000000E+00  0.1836735E+00  0.1339386E-04  0.0000000E+00 -0.8550380E-01
  0.8775510E+00  0.0000000E+00  0.1836735E+00  0.9408535E-05  0.0000000E+00 -0.8549923E-01
  0.9183673E+00  0.0000000E+00  0.1836735E+00  0.5217585E-05  0.0000000E+00 -0.8549629E-01
  0.9591837E+00  0.0000000E+00  0.1836735E+00  0.8962955E-06  0.0000000E+00 -0.8549502E-01
  0.1000000E+01  0.0000000E+00  0.1836735E+00 -0.3478534E-05  0.0000000E+00 -0.8549549E-01
  0.1040816E+01  0.0000000E+00  0.1836735E+00 -0.7828212E-05  0.0000000E+00 -0.8549768E-01
  0.1081633E+01  0.0000000E+00  0.1836735E+00 -0.1207465E-04  0.0000000E+00 -0.8550157E-01
  0.1122449E+01  0.0000000E+00  0.1836735E+00 -0.1614344E-04  0.0000000E+00 -0.8550711E-01
  0.1163265E+01  0.0000000E+00  0.1836735E+00 -0.1995852E-04  0.0000000E+00 -0.8551421E-01
  0.1204082E+01  0.0000000E+00  0.1836735E+00 -0.2345660E-04  0.0000000E+00 -0.8552275E-01
  0.1244898E+01  0.0000000E+00  0.1836735E+00 -0.2657800E-04  0.0000000E+00 -0.8553261E-01
  0.1285714E+01  0.0000000E+00  0.1836735E+00 -0.2926773E-04  0.0000000E+00 -0.8554360E-01
  0.1326531E+01  0.0000000E+00  0.1836735E+00 -0.3148481E-04  0.0000000E+00 -0.8555557E-01
  0.1367347E+01  0.0000000E+00  0.1836735E+00 -0.3319646E-04  0.0000000E+00 -0.8556830E-01
  0.1408163E+01  0.0000000E+00  0.1836735E+00 -0.3437783E-04  0.0000000E+00 -0.8558160E-01
  0.1448980E+01  0.0000000E+00  0.1836735E+00 -0.3501418E-04  0.0000000E+00 -0.8559525E-01
  0.1489796E+01  0.0000000E+00  0.1836735E+00 -0.3510112E-04  0.0000000E+00 -0.8560904E-01
  0.1530612E+01  0.0000000E+00  0.1836735E+00 -0.3464350E-04  0.0000000E+00 -0.8562275E-01
  0.1571429E+01  0.0000000E+00  0.1836735E+00 -0.3365444E-04  0.0000000E+00 -0.8563616E-01
  0.1612245E+01  0.0000000E+00  0.1836735E+00 -0.3215487E-04  0.0000000E+00 -0.8564908E-01
  0.1653061E+01  0.0000000E+00  0.1836735E+00 -0.3017320E-04  0.0000000E+00 -0.8566131E-01
  0.1693878E+01  0.0000000E+00  0.1836735E+00 -0.2774434E-04  0.0000000E+00 -0.8567267E-01
  0.1734694E+01  0.0000000E+00  0.1836735E+00 -0.2490854E-04  0.0000000E+00 -0.8568299E-01
  0.1775510E+01  0.0000000E+00  0.1836735E+00 -0.2171075E-04  0.0000000E+00 -0.8569213E-01
  0.1816326E+01  0.0000000E+00  0.1836735E+00 -0.1820020E-04  0.0000000E+00 -0.8569995E-01
  0.1857143E+01  0.0000000E+00  0.1836735E+00 -0.1442961E-04  0.0000000E+00 -0.8570633E-01
  0.1897959E+01  0.0000000E+00  0.1836735E+00 -0.1045414E-04  0.0000000E+00 -0.8571121E-01
  0.1938776E+01  0.0000000E+00  0.1836735E+00 -0.6330975E-05  0.0000000E+00 -0.8571449E-01
  0.1989796E+01  0.0000000E+00  0.1836735E+00 -0.2119921E-05  0.0000000E+00 -0.8571615E-01
  0.2040816E-01  0.0000000E+00  0.2244898E+00  0.2300554E-05  0.0000000E+00 -0.8568472E-01
  0.6122449E-01  0.0000000E+00  0.2244898E+00  0.6867544E-05  0.0000000E+00 -0.8568310E-01
  0.1020408E+00  0.0000000E+00  0.2244898E+00  0.1132871E-04  0.0000000E+00 -0.8567988E-01
  0.1428571E+00  0.0000000E+00  0.2244898E+00  0.1561256E-04  0.0000000E+00 -0.8567512E-01
  0.1836735E+00  0.0000000E+00  0.2244898E+00  0.1964734E-04  0.0000000E+00 -0.8566888E-01
  0.2244898E+00  0.0000000E+00  0.2244898E+00  0.2337002E-04  0.0000000E+00 -0.8566126E-01
  0.2653061E+00  0.0000000E+00  0.2244898E+00  0.2671830E-04  0.0000000E+00 -0.8565239E-01
  0.3061225E+00  0.0000000E+00  0.2244898E+00  0.2963214E-04  0.0000000E+00 -0.8564240E-01
  0.3469388E+00  0.0000000E+00  0.2244898E+00  0.3206082E-04  0.0000000E+00 -0.8563145E-01
  0.3877551E+00  0.0000000E+00  0.2244898E+00  0.3395917E-04  0.0000000E+00 -0.8561973E-01
  0.4285714E+00  0.0000000E+00  0.2244898E+00  0.3528813E-04  0.0000000E+00 -0.8560743E-01
  0.4693878E+00  0.0000000E+00  0.2244898E+00  0.3601714E-04  0.0000000E+00 -0.8559474E-01
  0.5102041E+00  0.0000000E+00  0.2244898E+00  0.3612535E-04  0.0000000E+00 -0.8558190E-01
  0.5510204E+00  0.0000000E+00  0.2244898E+00  0.3560205E-04  0.0000000E+00 -0.8556912E-01
  0.5918368E+00  0.0000000E+00  0.2244898E+00  0.3444708E-04  0.0000000E+00 -0.8555662E-01
  0.6326531E+00  0.0000000E+00  0.2244898E+00  0.3267138E-04  0.0000000E+00 -0.8554463E-01
  0.6734694E+00  0.0000000E+00  0.2244898E+00  0.3029738E-04  0.0000000E+00 -0.8553337E-01
  0.7142857E+00  0.0000000E+00  0.2244898E+00  0.2735902E-04  0.0000000E+00 -0.8552304E-01
  0.7551020E+00  0.0000000E+00  0.2244898E+00  0.2390151E-04  0.0000000E+00 -0.8551385E-01
  0.7959183E+00  0.0000000E+00  0.2244898E+00  0.1998091E-04  0.0000000E+00 -0.8550596E-01
  0.8367347E+00  0.0000000E+00  0.2244898E+00  0.1566317E-04  0.0000000E+00 -0.8549954E-01
  0.8775510E+00  0.0000000E+00  0.2244898E+00  0.1102262E-04  0.0000000E+00 -0.8549471E-01
  0.9183673E+00  0.0000000E+00  0.2244898E+00  0.6141357E-05  0.0000000E+00 -0.8549158E-01
  0.9591837E+00  0.0000000E+00  0.2244898E+00  0.1106943E-05  0.0000000E+00 -0.8549022E-01
  0.1000000E+01  0.0000000E+00  0.2244898E+00 -0.3990288E-05  0.0000000E+00 -0.8549066E-01
  0.1040816E+01  0.0000000E+00  0.2244898E+00 -0.9058141E-05  0.0000000E+00 -0.8549292E-01
  0.1081633E+01  0.0000000E+00  0.2244898E+00 -0.1400504E-04  0.0000000E+00 -0.8549697E-01
  0.1122449E+01  0.0000000E+00  0.2244898E+00 -0.1874355E-04  0.0000000E+00 -0.8550274E-01
  0.1163265E+01  0.0000000E+00  0.2244898E+00 -0.2318532E-04  0.0000000E+00 -0.8551015E-01
  0.1204082E+01  0.0000000E+00  0.2244898E+00 -0.2725579E-04  0.0000000E+00 -0.8551908E-01
  0.1244898E+01  0.0000000E+00  0.2244898E+00 -0.3088545E-04  0.0000000E+00 -0.8552937E-01
  0.1285714E+01  0.0000000E+00  0.2244898E+00 -0.3401075E-04  0.0000000E+00 -0.8554086E-01
  0.1326531E+01  0.0000000E+00  0.2244898E+00 -0.3658392E-04  0.0000000E+00 -0.8555336E-01
  0.1367347E+01  0.0000000E+00  0.2244898E+00 -0.3856715E-04  0.0000000E+00 -0.8556665E-01
  0.1408163E+01  0.0000000E+00  0.2244898E+00 -0.3993227E-04  0.0000000E+00 -0.8558054E-01
  0.1448980E+01  0.0000000E+00  0.2244898E+00 -0.4066282E-04  0.0000000E+00 -0.8559478E-01
  0.1489796E+01  0.0000000E+00  0.2244898E+00 -0.4075430E-04  0.0000000E+00 -0.8560916E-01
  0.1530612E+01  0.0000000E+00  0.2244898E+00 -0.4021316E-04  0.0000000E+00 -0.8562345E-01
  0.1571429E+01  0.0000000E+00  0.2244898E+00 -0.3905549E-04  0.0000000E+00 -0.8563743E-01
  0.1612245E+01  0.0000000E+00  0.2244898E+00 -0.3730626E-04  0.0000000E+00 -0.8565089E-01
  0.1653061E+01  0.0000000E+00  0.2244898E+00 -0.3499882E-04  0.0000000E+00 -0.8566363E-01
  0.1693878E+01  0.0000000E+00  0.2244898E+00 -0.3217422E-04  0.0000000E+00 -0.8567545E-01
  0.1734694E+01  0.0000000E+00  0.2244898E+00 -0.2887973E-04  0.0000000E+00 -0.8568618E-01
  0.1775510E+01  0.0000000E+00  0.2244898E+00 -0.2516764E-04  0.0000000E+00 -0.8569568E-01
  0.1816326E+01  0.0000000E+00  0.2244898E+00 -0.2109488E-04  0.0000000E+00 -0.8570381E-01
  0.1857143E+01  0.0000000E+00  0.2244898E+00 -0.1672242E-04  0.0000000E+00 -0.8571045E-01
  0.1897959E+01  0.0000000E+00  0.2244898E+00 -0.1211393E-04  0.0000000E+00 -0.8571551E-01
  0.1938776E+01  0.0000000E+00  0.2244898E+00 -0.7335738E-05  0.0000000E+00 -0.8571893E-01
  0.1989796E+01  0.0000000E+00  0.2244898E+00 -0.2456480E-05  0.0000000E+00 -0.8572065E-01
  0.2040816E-01  0.0000000E+00  0.2653061E+00  0.2609064E-05  0.0000000E+00 -0.8568952E-01
  0.6122449E-01  0.0000000E+00  0.2653061E+00  0.7788666E-05  0.0000000E+00 -0.8568783E-01
  0.1020408E+00  0.0000000E+00  0.2653061E+00  0.1284898E-04  0.0000000E+00 -0.8568445E-01
  0.1428571E+00  0.0000000E+00  0.2653061E+00  0.1770961E-04  0.0000000E+00 -0.8567946E-01
  0.1836735E+00  0.0000000E+00  0.2653061E+00  0.2229011E-04  0.0000000E+00 -0.8567292E-01
  0.2244898E+00  0.0000000E+00  0.2653061E+00  0.2651885E-04  0.0000000E+00 -0.8566494E-01
  0.2653061E+00  0.0000000E+00  0.2653061E+00  0.3032539E-04  0.0000000E+00 -0.8565563E-01
  0.3061225E+00  0.0000000E+00  0.2653061E+00  0.3364187E-04  0.0000000E+00 -0.8564516E-01
  0.3469388E+00  0.0000000E+00  0.2653061E+00  0.3641029E-04  0.0000000E+00 -0.8563367E-01
  0.3877551E+00  0.0000000E+00  0.2653061E+00  0.3857891E-04  0.0000000E+00 -0.8562136E-01
  0.4285714E+00  0.0000000E+00  0.2653061E+00  0.4010288E-04  0.0000000E+00 -0.8560843E-01
  0.4693878E+00  0.0000000E+00  0.2653061E+00  0.4094683E-04  0.0000000E+00 -0.8559509E-01
  0.5102041E+00  0.0000000E+00  0.2653061E+00  0.4108624E-04  0.0000000E+00 -0.8558158E-01
  0.5510204E+00  0.0000000E+00  0.2653061E+00  0.4050803E-04  0.0000000E+00 -0.8556812E-01
  0.5918368E+00  0.0000000E+00  0.2653061E+00  0.3921112E-04  0.0000000E+00 -0.8555495E-01
  0.6326531E+00  0.0000000E+00  0.2653061E+00  0.3720711E-04  0.0000000E+00 -0.8554231E-01
  0.6734694E+00  0.0000000E+00  0.2653061E+00  0.3452078E-04  0.0000000E+00 -0.8553042E-01
  0.7142857E+00  0.0000000E+00  0.2653061E+00  0.3119010E-04  0.0000000E+00 -0.8551951E-01
  0.7551020E+00  0.0000000E+00  0.2653061E+00  0.2726605E-04  0.0000000E+00 -0.8550979E-01
  0.7959183E+00  0.0000000E+00  0.2653061E+00  0.2281223E-04  0.0000000E+00 -0.8550144E-01
  0.8367347E+00  0.0000000E+00  0.2653061E+00  0.1790382E-04  0.0000000E+00 -0.8549463E-01
  0.8775510E+00  0.0000000E+00  0.2653061E+00  0.1262536E-04  0.0000000E+00 -0.8548950E-01
  0.9183673E+00  0.0000000E+00  0.2653061E+00  0.7071017E-05  0.0000000E+00 -0.8548616E-01
  0.9591837E+00  0.0000000E+00  0.2653061E+00  0.1340853E-05  0.0000000E+00 -0.8548468E-01
  0.1000000E+01  0.0000000E+00  0.2653061E+00 -0.4461529E-05  0.0000000E+00 -0.8548511E-01
  0.1040816E+01  0.0000000E+00  0.2653061E+00 -0.1023034E-04  0.0000000E+00 -0.8548745E-01
  0.1081633E+01  0.0000000E+00  0.2653061E+00 -0.1586052E-04  0.0000000E+00 -0.8549168E-01
  0.1122449E+01  0.0000000E+00  0.2653061E+00 -0.2125172E-04  0.0000000E+00 -0.8549772E-01
  0.1163265E+01  0.0000000E+00  0.2653061E+00 -0.2630332E-04  0.0000000E+00 -0.8550549E-01
  0.1204082E+01  0.0000000E+00  0.2653061E+00 -0.3092968E-04  0.0000000E+00 -0.8551485E-01
  0.1244898E+01  0.0000000E+00  0.2653061E+00 -0.3505164E-04  0.0000000E+00 -0.8552565E-01
  0.1285714E+01  0.0000000E+00  0.2653061E+00 -0.3859741E-04  0.0000000E+00 -0.8553771E-01
  0.1326531E+01  0.0000000E+00  0.2653061E+00 -0.4151269E-04  0.0000000E+00 -0.8555082E-01