title = "dataset feddes"
variables = "x", "y", "z", "vx", "vy", "vz"
zone t = "velocities, solution time =  5.300E+01 days        " i =   49, j =   49, k =    1,  f=point
  0.2040816E-01  0.0000000E+00  0.2040816E-01  0.5992199E-06  0.0000000E+00 -0.8503610E-01
  0.6122449E-01  0.0000000E+00  0.2040816E-01  0.1787702E-05  0.0000000E+00 -0.8503338E-01
  0.1020408E+00  0.0000000E+00  0.2040816E-01  0.2945169E-05  0.0000000E+00 -0.8502801E-01
  0.1428571E+00  0.0000000E+00  0.2040816E-01  0.4048563E-05  0.0000000E+00 -0.8502007E-01
  0.1836735E+00  0.0000000E+00  0.2040816E-01  0.5082451E-05  0.0000000E+00 -0.8500970E-01
  0.2244898E+00  0.0000000E+00  0.2040816E-01  0.6027784E-05  0.0000000E+00 -0.8499709E-01
  0.2653061E+00  0.0000000E+00  0.2040816E-01  0.6865613E-05  0.0000000E+00 -0.8498245E-01
  0.3061225E+00  0.0000000E+00  0.2040816E-01  0.7578825E-05  0.0000000E+00 -0.8496605E-01
  0.3469388E+00  0.0000000E+00  0.2040816E-01  0.8152452E-05  0.0000000E+00 -0.8494819E-01
  0.3877551E+00  0.0000000E+00  0.2040816E-01  0.8573760E-05  0.0000000E+00 -0.8492920E-01
  0.4285714E+00  0.0000000E+00  0.2040816E-01  0.8832468E-05  0.0000000E+00 -0.8490944E-01
  0.4693878E+00  0.0000000E+00  0.2040816E-01  0.8921062E-05  0.0000000E+00 -0.8488929E-01
  0.5102041E+00  0.0000000E+00  0.2040816E-01  0.8835157E-05  0.0000000E+00 -0.8486913E-01
  0.5510204E+00  0.0000000E+00  0.2040816E-01  0.8573790E-05  0.0000000E+00 -0.8484937E-01
  0.5918368E+00  0.0000000E+00  0.2040816E-01  0.8139624E-05  0.0000000E+00 -0.8483040E-01
  0.6326531E+00  0.0000000E+00  0.2040816E-01  0.7538978E-05  0.0000000E+00 -0.8481260E-01
  0.6734694E+00  0.0000000E+00  0.2040816E-01  0.6781720E-05  0.0000000E+00 -0.8479635E-01
  0.7142857E+00  0.0000000E+00  0.2040816E-01  0.5881026E-05  0.0000000E+00 -0.8478198E-01
  0.7551020E+00  0.0000000E+00  0.2040816E-01  0.4853064E-05  0.0000000E+00 -0.8476979E-01
  0.7959183E+00  0.0000000E+00  0.2040816E-01  0.3716608E-05  0.0000000E+00 -0.8476007E-01
  0.8367347E+00  0.0000000E+00  0.2040816E-01  0.2492506E-05  0.0000000E+00 -0.8475302E-01
  0.8775510E+00  0.0000000E+00  0.2040816E-01  0.1203008E-05  0.0000000E+00 -0.8474883E-01
  0.9183673E+00  0.0000000E+00  0.2040816E-01 -0.1287005E-06  0.0000000E+00 -0.8474761E-01
  0.9591837E+00  0.0000000E+00  0.2040816E-01 -0.1476415E-05  0.0000000E+00 -0.8474943E-01
  0.1000000E+01  0.0000000E+00  0.2040816E-01 -0.2815785E-05  0.0000000E+00 -0.8475430E-01
  0.1040816E+01  0.0000000E+00  0.2040816E-01 -0.4122453E-05  0.0000000E+00 -0.8476217E-01
  0.1081633E+01  0.0000000E+00  0.2040816E-01 -0.5371271E-05  0.0000000E+00 -0.8477295E-01
  0.1122449E+01  0.0000000E+00  0.2040816E-01 -0.6545566E-05  0.0000000E+00 -0.8478647E-01
  0.1163265E+01  0.0000000E+00  0.2040816E-01 -0.7625362E-05  0.0000000E+00 -0.8480256E-01
  0.1204082E+01  0.0000000E+00  0.2040816E-01 -0.8592165E-05  0.0000000E+00 -0.8482097E-01
  0.1244898E+01  0.0000000E+00  0.2040816E-01 -0.9430657E-05  0.0000000E+00 -0.8484142E-01
  0.1285714E+01  0.0000000E+00  0.2040816E-01 -0.1012869E-04  0.0000000E+00 -0.8486363E-01
  0.1326531E+01  0.0000000E+00  0.2040816E-01 -0.1067701E-04  0.0000000E+00 -0.8488724E-01
  0.1367347E+01  0.0000000E+00  0.2040816E-01 -0.1106908E-04  0.0000000E+00 -0.8491193E-01
  0.1408163E+01  0.0000000E+00  0.2040816E-01 -0.1130104E-04  0.0000000E+00 -0.8493733E-01
  0.1448980E+01  0.0000000E+00  0.2040816E-01 -0.1137157E-04  0.0000000E+00 -0.8496307E-01
  0.1489796E+01  0.0000000E+00  0.2040816E-01 -0.1128178E-04  0.0000000E+00 -0.8498878E-01
  0.1530612E+01  0.0000000E+00  0.2040816E-01 -0.1103510E-04  0.0000000E+00 -0.8501412E-01
  0.1571429E+01  0.0000000E+00  0.2040816E-01 -0.1063703E-04  0.0000000E+00 -0.8503873E-01
  0.1612245E+01  0.0000000E+00  0.2040816E-01 -0.1009500E-04  0.0000000E+00 -0.8506227E-01
  0.1653061E+01  0.0000000E+00  0.2040816E-01 -0.9418144E-05  0.0000000E+00 -0.8508443E-01
  0.1693878E+01  0.0000000E+00  0.2040816E-01 -0.8617070E-05  0.0000000E+00 -0.8510491E-01
  0.1734694E+01  0.0000000E+00  0.2040816E-01 -0.7703684E-05  0.0000000E+00 -0.8512344E-01
  0.1775510E+01  0.0000000E+00  0.2040816E-01 -0.6691000E-05  0.0000000E+00 -0.8513979E-01
  0.1816326E+01  0.0000000E+00  0.2040816E-01 -0.5592985E-05  0.0000000E+00 -0.8515374E-01
  0.1857143E+01  0.0000000E+00  0.2040816E-01 -0.4424361E-05  0.0000000E+00 -0.8516511E-01
  0.1897959E+01  0.0000000E+00  0.2040816E-01 -0.3200385E-05  0.0000000E+00 -0.8517377E-01
  0.1938776E+01  0.0000000E+00  0.2040816E-01 -0.1936625E-05  0.0000000E+00 -0.8517961E-01
  0.1989796E+01  0.0000000E+00  0.2040816E-01 -0.6486817E-06  0.0000000E+00 -0.8518254E-01
  0.2040816E-01  0.0000000E+00  0.6122449E-01  0.1643961E-05  0.0000000E+00 -0.8503847E-01
  0.6122449E-01  0.0000000E+00  0.6122449E-01  0.4902275E-05  0.0000000E+00 -0.8503572E-01
  0.1020408E+00  0.0000000E+00  0.6122449E-01  0.8076370E-05  0.0000000E+00 -0.8503027E-01
  0.1428571E+00  0.0000000E+00  0.6122449E-01  0.1110408E-04  0.0000000E+00 -0.8502220E-01
  0.1836735E+00  0.0000000E+00  0.6122449E-01  0.1394096E-04  0.0000000E+00 -0.8501167E-01
  0.2244898E+00  0.0000000E+00  0.6122449E-01  0.1653488E-04  0.0000000E+00 -0.8499886E-01
  0.2653061E+00  0.0000000E+00  0.6122449E-01  0.1883430E-04  0.0000000E+00 -0.8498399E-01
  0.3061225E+00  0.0000000E+00  0.6122449E-01  0.2079245E-04  0.0000000E+00 -0.8496733E-01
  0.3469388E+00  0.0000000E+00  0.6122449E-01  0.2236819E-04  0.0000000E+00 -0.8494918E-01
  0.3877551E+00  0.0000000E+00  0.6122449E-01  0.2352644E-04  0.0000000E+00 -0.8492987E-01
  0.4285714E+00  0.0000000E+00  0.6122449E-01  0.2423877E-04  0.0000000E+00 -0.8490978E-01
  0.4693878E+00  0.0000000E+00  0.6122449E-01  0.2448437E-04  0.0000000E+00 -0.8488928E-01
  0.5102041E+00  0.0000000E+00  0.6122449E-01  0.2425099E-04  0.0000000E+00 -0.8486878E-01
  0.5510204E+00  0.0000000E+00  0.6122449E-01  0.2353585E-04  0.0000000E+00 -0.8484867E-01
  0.5918368E+00  0.0000000E+00  0.6122449E-01  0.2234619E-04  0.0000000E+00 -0.8482936E-01
  0.6326531E+00  0.0000000E+00  0.6122449E-01  0.2069937E-04  0.0000000E+00 -0.8481124E-01
  0.6734694E+00  0.0000000E+00  0.6122449E-01  0.1862253E-04  0.0000000E+00 -0.8479468E-01
  0.7142857E+00  0.0000000E+00  0.6122449E-01  0.1615191E-04  0.0000000E+00 -0.8478004E-01
  0.7551020E+00  0.0000000E+00  0.6122449E-01  0.1333191E-04  0.0000000E+00 -0.8476762E-01
  0.7959183E+00  0.0000000E+00  0.6122449E-01  0.1021409E-04  0.0000000E+00 -0.8475770E-01
  0.8367347E+00  0.0000000E+00  0.6122449E-01  0.6855662E-05  0.0000000E+00 -0.8475050E-01
  0.8775510E+00  0.0000000E+00  0.6122449E-01  0.3317224E-05  0.0000000E+00 -0.8474620E-01
  0.9183673E+00  0.0000000E+00  0.6122449E-01 -0.3371986E-06  0.0000000E+00 -0.8474492E-01
  0.9591837E+00  0.0000000E+00  0.6122449E-01 -0.4033829E-05  0.0000000E+00 -0.8474674E-01
  0.1000000E+01  0.0000000E+00  0.6122449E-01 -0.7706103E-05  0.0000000E+00 -0.8475165E-01
  0.1040816E+01  0.0000000E+00  0.6122449E-01 -0.1129103E-04  0.0000000E+00 -0.8475960E-01
  0.1081633E+01  0.0000000E+00  0.6122449E-01 -0.1471723E-04  0.0000000E+00 -0.8477051E-01
  0.1122449E+01  0.0000000E+00  0.6122449E-01 -0.1793721E-04  0.0000000E+00 -0.8478421E-01
  0.1163265E+01  0.0000000E+00  0.6122449E-01 -0.2089691E-04  0.0000000E+00 -0.8480051E-01
  0.1204082E+01  0.0000000E+00  0.6122449E-01 -0.2354629E-04  0.0000000E+00 -0.8481916E-01
  0.1244898E+01  0.0000000E+00  0.6122449E-01 -0.2584358E-04  0.0000000E+00 -0.8483988E-01
  0.1285714E+01  0.0000000E+00  0.6122449E-01 -0.2775550E-04  0.0000000E+00 -0.8486237E-01
  0.1326531E+01  0.0000000E+00  0.6122449E-01 -0.2925676E-04  0.0000000E+00 -0.8488630E-01
  0.1367347E+01  0.0000000E+00  0.6122449E-01 -0.3032954E-04  0.0000000E+00 -0.8491130E-01
  0.1408163E+01  0.0000000E+00  0.6122449E-01 -0.3096333E-04  0.0000000E+00 -0.8493701E-01
  0.1448980E+01  0.0000000E+00  0.6122449E-01 -0.3115465E-04  0.0000000E+00 -0.8496308E-01
  0.1489796E+01  0.0000000E+00  0.6122449E-01 -0.3090671E-04  0.0000000E+00 -0.8498911E-01
  0.1530612E+01  0.0000000E+00  0.6122449E-01 -0.3022899E-04  0.0000000E+00 -0.8501476E-01
  0.1571429E+01  0.0000000E+00  0.6122449E-01 -0.2913673E-04  0.0000000E+00 -0.8503966E-01
  0.1612245E+01  0.0000000E+00  0.6122449E-01 -0.2765036E-04  0.0000000E+00 -0.8506348E-01
  0.1653061E+01  0.0000000E+00  0.6122449E-01 -0.2579496E-04  0.0000000E+00 -0.8508590E-01
  0.1693878E+01  0.0000000E+00  0.6122449E-01 -0.2359967E-04  0.0000000E+00 -0.8510661E-01
  0.1734694E+01  0.0000000E+00  0.6122449E-01 -0.2109714E-04  0.0000000E+00 -0.8512536E-01
  0.1775510E+01  0.0000000E+00  0.6122449E-01 -0.1832303E-04  0.0000000E+00 -0.8514189E-01
  0.1816326E+01  0.0000000E+00  0.6122449E-01 -0.1531559E-04  0.0000000E+00 -0.8515599E-01
  0.1857143E+01  0.0000000E+00  0.6122449E-01 -0.1211514E-04  0.0000000E+00 -0.8516750E-01
  0.1897959E+01  0.0000000E+00  0.6122449E-01 -0.8763402E-05  0.0000000E+00 -0.8517625E-01
  0.1938776E+01  0.0000000E+00  0.6122449E-01 -0.5302903E-05  0.0000000E+00 -0.8518215E-01
  0.1989796E+01  0.0000000E+00  0.6122449E-01 -0.1776066E-05  0.0000000E+00 -0.8518512E-01
  0.2040816E-01  0.0000000E+00  0.1020408E+00  0.2472042E-05  0.0000000E+00 -0.8504261E-01
  0.6122449E-01  0.0000000E+00  0.1020408E+00  0.7369199E-05  0.0000000E+00 -0.8503978E-01
  0.1020408E+00  0.0000000E+00  0.1020408E+00  0.1214098E-04  0.0000000E+00 -0.8503419E-01
  0.1428571E+00  0.0000000E+00  0.1020408E+00  0.1669621E-04  0.0000000E+00 -0.8502591E-01
  0.1836735E+00  0.0000000E+00  0.1020408E+00  0.2096477E-04  0.0000000E+00 -0.8501510E-01
  0.2244898E+00  0.0000000E+00  0.1020408E+00  0.2486852E-04  0.0000000E+00 -0.8500195E-01
  0.2653061E+00  0.0000000E+00  0.1020408E+00  0.2833072E-04  0.0000000E+00 -0.8498667E-01
  0.3061225E+00  0.0000000E+00  0.1020408E+00  0.3128125E-04  0.0000000E+00 -0.8496955E-01
  0.3469388E+00  0.0000000E+00  0.1020408E+00  0.3365806E-04  0.0000000E+00 -0.8495089E-01
  0.3877551E+00  0.0000000E+00  0.1020408E+00  0.3540792E-04  0.0000000E+00 -0.8493104E-01
  0.4285714E+00  0.0000000E+00  0.1020408E+00  0.3648746E-04  0.0000000E+00 -0.8491037E-01
  0.4693878E+00  0.0000000E+00  0.1020408E+00  0.3686471E-04  0.0000000E+00 -0.8488927E-01
  0.5102041E+00  0.0000000E+00  0.1020408E+00  0.3652062E-04  0.0000000E+00 -0.8486815E-01
  0.5510204E+00  0.0000000E+00  0.1020408E+00  0.3545053E-04  0.0000000E+00 -0.8484743E-01
  0.5918368E+00  0.0000000E+00  0.1020408E+00  0.3366512E-04  0.0000000E+00 -0.8482753E-01
  0.6326531E+00  0.0000000E+00  0.1020408E+00  0.3119061E-04  0.0000000E+00 -0.8480885E-01
  0.6734694E+00  0.0000000E+00  0.1020408E+00  0.2806812E-04  0.0000000E+00 -0.8479177E-01
  0.7142857E+00  0.0000000E+00  0.1020408E+00  0.2435242E-04  0.0000000E+00 -0.8477665E-01
  0.7551020E+00  0.0000000E+00  0.1020408E+00  0.2011042E-04  0.0000000E+00 -0.8476382E-01
  0.7959183E+00  0.0000000E+00  0.1020408E+00  0.1541955E-04  0.0000000E+00 -0.8475356E-01
  0.8367347E+00  0.0000000E+00  0.1020408E+00  0.1036587E-04  0.0000000E+00 -0.8474609E-01
  0.8775510E+00  0.0000000E+00  0.1020408E+00  0.5041668E-05  0.0000000E+00 -0.8474160E-01
  0.9183673E+00  0.0000000E+00  0.1020408E+00 -0.4570185E-06  0.0000000E+00 -0.8474023E-01
  0.9591837E+00  0.0000000E+00  0.1020408E+00 -0.6018488E-05  0.0000000E+00 -0.8474202E-01
  0.1000000E+01  0.0000000E+00  0.1020408E+00 -0.1154096E-04  0.0000000E+00 -0.8474701E-01
  0.1040816E+01  0.0000000E+00  0.1020408E+00 -0.1693227E-04  0.0000000E+00 -0.8475512E-01
  0.1081633E+01  0.0000000E+00  0.1020408E+00 -0.2208485E-04  0.0000000E+00 -0.8476626E-01
  0.1122449E+01  0.0000000E+00  0.1020408E+00 -0.2692381E-04  0.0000000E+00 -0.8478026E-01
  0.1163265E+01  0.0000000E+00  0.1020408E+00 -0.3136885E-04  0.0000000E+00 -0.8479692E-01
  0.1204082E+01  0.0000000E+00  0.1020408E+00 -0.3534594E-04  0.0000000E+00 -0.8481599E-01
  0.1244898E+01  0.0000000E+00  0.1020408E+00 -0.3879286E-04  0.0000000E+00 -0.8483719E-01
  0.1285714E+01  0.0000000E+00  0.1020408E+00 -0.4165988E-04  0.0000000E+00 -0.8486018E-01
  0.1326531E+01  0.0000000E+00  0.1020408E+00 -0.4390920E-04  0.0000000E+00 -0.8488464E-01
  0.1367347E+01  0.0000000E+00  0.1020408E+00 -0.4551439E-04  0.0000000E+00 -0.8491019E-01
  0.1408163E+01  0.0000000E+00  0.1020408E+00 -0.4646002E-04  0.0000000E+00 -0.8493647E-01
  0.1448980E+01  0.0000000E+00  0.1020408E+00 -0.4674124E-04  0.0000000E+00 -0.8496309E-01
  0.1489796E+01  0.0000000E+00  0.1020408E+00 -0.4636329E-04  0.0000000E+00 -0.8498968E-01
  0.1530612E+01  0.0000000E+00  0.1020408E+00 -0.4534079E-04  0.0000000E+00 -0.8501586E-01
  0.1571429E+01  0.0000000E+00  0.1020408E+00 -0.4369697E-04  0.0000000E+00 -0.8504128E-01
  0.1612245E+01  0.0000000E+00  0.1020408E+00 -0.4146279E-04  0.0000000E+00 -0.8506558E-01
  0.1653061E+01  0.0000000E+00  0.1020408E+00 -0.3867608E-04  0.0000000E+00 -0.8508845E-01
  0.1693878E+01  0.0000000E+00  0.1020408E+00 -0.3538073E-04  0.0000000E+00 -0.8510958E-01
  0.1734694E+01  0.0000000E+00  0.1020408E+00 -0.3162583E-04  0.0000000E+00 -0.8512869E-01
  0.1775510E+01  0.0000000E+00  0.1020408E+00 -0.2746492E-04  0.0000000E+00 -0.8514554E-01
  0.1816326E+01  0.0000000E+00  0.1020408E+00 -0.2295530E-04  0.0000000E+00 -0.8515992E-01
  0.1857143E+01  0.0000000E+00  0.1020408E+00 -0.1815736E-04  0.0000000E+00 -0.8517164E-01
  0.1897959E+01  0.0000000E+00  0.1020408E+00 -0.1313346E-04  0.0000000E+00 -0.8518056E-01
  0.1938776E+01  0.0000000E+00  0.1020408E+00 -0.7946919E-05  0.0000000E+00 -0.8518657E-01
  0.1989796E+01  0.0000000E+00  0.1020408E+00 -0.2661373E-05  0.0000000E+00 -0.8518959E-01
  0.2040816E-01  0.0000000E+00  0.1428571E+00  0.3200164E-05  0.0000000E+00 -0.8504825E-01
  0.6122449E-01  0.0000000E+00  0.1428571E+00  0.9539629E-05  0.0000000E+00 -0.8504533E-01
  0.1020408E+00  0.0000000E+00  0.1428571E+00  0.1571793E-04  0.0000000E+00 -0.8503954E-01
  0.1428571E+00  0.0000000E+00  0.1428571E+00  0.2161964E-04  0.0000000E+00 -0.8503097E-01
  0.1836735E+00  0.0000000E+00  0.1428571E+00  0.2715171E-04  0.0000000E+00 -0.8501978E-01
  0.2244898E+00  0.0000000E+00  0.1428571E+00  0.3221330E-04  0.0000000E+00 -0.8500616E-01
  0.2653061E+00  0.0000000E+00  0.1428571E+00  0.3670575E-04  0.0000000E+00 -0.8499033E-01
  0.3061225E+00  0.0000000E+00  0.1428571E+00  0.4053843E-04  0.0000000E+00 -0.8497258E-01
  0.3469388E+00  0.0000000E+00  0.1428571E+00  0.4363055E-04  0.0000000E+00 -0.8495323E-01
  0.3877551E+00  0.0000000E+00  0.1428571E+00  0.4591233E-04  0.0000000E+00 -0.8493263E-01
  0.4285714E+00  0.0000000E+00  0.1428571E+00  0.4732646E-04  0.0000000E+00 -0.8491117E-01
  0.4693878E+00  0.0000000E+00  0.1428571E+00  0.4783019E-04  0.0000000E+00 -0.8488925E-01
  0.5102041E+00  0.0000000E+00  0.1428571E+00  0.4739758E-04  0.0000000E+00 -0.8486729E-01
  0.5510204E+00  0.0000000E+00  0.1428571E+00  0.4602162E-04  0.0000000E+00 -0.8484574E-01
  0.5918368E+00  0.0000000E+00  0.1428571E+00  0.4371577E-04  0.0000000E+00 -0.8482503E-01
  0.6326531E+00  0.0000000E+00  0.1428571E+00  0.4051428E-04  0.0000000E+00 -0.8480557E-01
  0.6734694E+00  0.0000000E+00  0.1428571E+00  0.3647113E-04  0.0000000E+00 -0.8478778E-01
  0.7142857E+00  0.0000000E+00  0.1428571E+00  0.3165789E-04  0.0000000E+00 -0.8477201E-01
  0.7551020E+00  0.0000000E+00  0.1428571E+00  0.2616141E-04  0.0000000E+00 -0.8475862E-01
  0.7959183E+00  0.0000000E+00  0.1428571E+00  0.2008161E-04  0.0000000E+00 -0.8474788E-01
  0.8367347E+00  0.0000000E+00  0.1428571E+00  0.1352952E-04  0.0000000E+00 -0.8474005E-01
  0.8775510E+00  0.0000000E+00  0.1428571E+00  0.6628120E-05  0.0000000E+00 -0.8473531E-01
  0.9183673E+00  0.0000000E+00  0.1428571E+00 -0.4971468E-06  0.0000000E+00 -0.8473379E-01
  0.9591837E+00  0.0000000E+00  0.1428571E+00 -0.7708815E-05  0.0000000E+00 -0.8473557E-01
  0.1000000E+01  0.0000000E+00  0.1428571E+00 -0.1486505E-04  0.0000000E+00 -0.8474066E-01
  0.1040816E+01  0.0000000E+00  0.1428571E+00 -0.2184667E-04  0.0000000E+00 -0.8474898E-01
  0.1081633E+01  0.0000000E+00  0.1428571E+00 -0.2851775E-04  0.0000000E+00 -0.8476044E-01
  0.1122449E+01  0.0000000E+00  0.1428571E+00 -0.3477837E-04  0.0000000E+00 -0.8477486E-01
  0.1163265E+01  0.0000000E+00  0.1428571E+00 -0.4052510E-04  0.0000000E+00 -0.8479203E-01
  0.1204082E+01  0.0000000E+00  0.1428571E+00 -0.4566331E-04  0.0000000E+00 -0.8481167E-01
  0.1244898E+01  0.0000000E+00  0.1428571E+00 -0.5011331E-04  0.0000000E+00 -0.8483351E-01
  0.1285714E+01  0.0000000E+00  0.1428571E+00 -0.5381132E-04  0.0000000E+00 -0.8485719E-01
  0.1326531E+01  0.0000000E+00  0.1428571E+00 -0.5670898E-04  0.0000000E+00 -0.8488238E-01
  0.1367347E+01  0.0000000E+00  0.1428571E+00 -0.5877270E-04  0.0000000E+00 -0.8490868E-01
  0.1408163E+01  0.0000000E+00  0.1428571E+00 -0.5998327E-04  0.0000000E+00 -0.8493573E-01
  0.1448980E+01  0.0000000E+00  0.1428571E+00 -0.6033520E-04  0.0000000E+00 -0.8496311E-01
  0.1489796E+01  0.0000000E+00  0.1428571E+00 -0.5983598E-04  0.0000000E+00 -0.8499045E-01
  0.1530612E+01  0.0000000E+00  0.1428571E+00 -0.5850526E-04  0.0000000E+00 -0.8501737E-01
  0.1571429E+01  0.0000000E+00  0.1428571E+00 -0.5637369E-04  0.0000000E+00 -0.8504348E-01
  0.1612245E+01  0.0000000E+00  0.1428571E+00 -0.5348181E-04  0.0000000E+00 -0.8506844E-01
  0.1653061E+01  0.0000000E+00  0.1428571E+00 -0.4987891E-04  0.0000000E+00 -0.8509192E-01
  0.1693878E+01  0.0000000E+00  0.1428571E+00 -0.4562190E-04  0.0000000E+00 -0.8511361E-01
  0.1734694E+01  0.0000000E+00  0.1428571E+00 -0.4077432E-04  0.0000000E+00 -0.8513322E-01
  0.1775510E+01  0.0000000E+00  0.1428571E+00 -0.3540533E-04  0.0000000E+00 -0.8515050E-01
  0.1816326E+01  0.0000000E+00  0.1428571E+00 -0.2958881E-04  0.0000000E+00 -0.8516525E-01
  0.1857143E+01  0.0000000E+00  0.1428571E+00 -0.2340245E-04  0.0000000E+00 -0.8517727E-01
  0.1897959E+01  0.0000000E+00  0.1428571E+00 -0.1692624E-04  0.0000000E+00 -0.8518642E-01
  0.1938776E+01  0.0000000E+00  0.1428571E+00 -0.1024103E-04  0.0000000E+00 -0.8519258E-01
  0.1989796E+01  0.0000000E+00  0.1428571E+00 -0.3429468E-05  0.0000000E+00 -0.8519567E-01
  0.2040816E-01  0.0000000E+00  0.1836735E+00  0.3868674E-05  0.0000000E+00 -0.8505525E-01
  0.6122449E-01  0.0000000E+00  0.1836735E+00  0.1153333E-04  0.0000000E+00 -0.8505221E-01
  0.1020408E+00  0.0000000E+00  0.1836735E+00  0.1900477E-04  0.0000000E+00 -0.8504618E-01
  0.1428571E+00  0.0000000E+00  0.1836735E+00  0.2614603E-04  0.0000000E+00 -0.8503726E-01
  0.1836735E+00  0.0000000E+00  0.1836735E+00  0.3284336E-04  0.0000000E+00 -0.8502560E-01
  0.2244898E+00  0.0000000E+00  0.1836735E+00  0.3897536E-04  0.0000000E+00 -0.8501139E-01
  0.2653061E+00  0.0000000E+00  0.1836735E+00  0.4442345E-04  0.0000000E+00 -0.8499488E-01
  0.3061225E+00  0.0000000E+00  0.1836735E+00  0.4907806E-04  0.0000000E+00 -0.8497636E-01
  0.3469388E+00  0.0000000E+00  0.1836735E+00  0.5284083E-04  0.0000000E+00 -0.8495616E-01
  0.3877551E+00  0.0000000E+00  0.1836735E+00  0.5562602E-04  0.0000000E+00 -0.8493463E-01
  0.4285714E+00  0.0000000E+00  0.1836735E+00  0.5736248E-04  0.0000000E+00 -0.8491218E-01
  0.4693878E+00  0.0000000E+00  0.1836735E+00  0.5799626E-04  0.0000000E+00 -0.8488923E-01
  0.5102041E+00  0.0000000E+00  0.1836735E+00  0.5749373E-04  0.0000000E+00 -0.8486623E-01
  0.5510204E+00  0.0000000E+00  0.1836735E+00  0.5584467E-04  0.0000000E+00 -0.8484364E-01
  0.5918368E+00  0.0000000E+00  0.1836735E+00  0.5306472E-04  0.0000000E+00 -0.8482191E-01
  0.6326531E+00  0.0000000E+00  0.1836735E+00  0.4919606E-04  0.0000000E+00 -0.8480149E-01
  0.6734694E+00  0.0000000E+00  0.1836735E+00  0.4430555E-04  0.0000000E+00 -0.8478280E-01
  0.7142857E+00  0.0000000E+00  0.1836735E+00  0.3848100E-04  0.0000000E+00 -0.8476623E-01
  0.7551020E+00  0.0000000E+00  0.1836735E+00  0.3182777E-04  0.0000000E+00 -0.8475213E-01
  0.7959183E+00  0.0000000E+00  0.1836735E+00  0.2446611E-04  0.0000000E+00 -0.8474081E-01
  0.8367347E+00  0.0000000E+00  0.1836735E+00  0.1652916E-04  0.0000000E+00 -0.8473252E-01
  0.8775510E+00  0.0000000E+00  0.1836735E+00  0.8168899E-05  0.0000000E+00 -0.8472746E-01
  0.9183673E+00  0.0000000E+00  0.1836735E+00 -0.4602886E-06  0.0000000E+00 -0.8472578E-01
  0.9591837E+00  0.0000000E+00  0.1836735E+00 -0.9198082E-05  0.0000000E+00 -0.8472754E-01
  0.1000000E+01  0.0000000E+00  0.1836735E+00 -0.1786199E-04  0.0000000E+00 -0.8473275E-01
  0.1040816E+01  0.0000000E+00  0.1836735E+00 -0.2630756E-04  0.0000000E+00 -0.8474135E-01
  0.1081633E+01  0.0000000E+00  0.1836735E+00 -0.3437319E-04  0.0000000E+00 -0.8475321E-01
  0.1122449E+01  0.0000000E+00  0.1836735E+00 -0.4193637E-04  0.0000000E+00 -0.8476815E-01
  0.1163265E+01  0.0000000E+00  0.1836735E+00 -0.4887277E-04  0.0000000E+00 -0.8478594E-01
  0.1204082E+01  0.0000000E+00  0.1836735E+00 -0.5506925E-04  0.0000000E+00 -0.8480631E-01
  0.1244898E+01  0.0000000E+00  0.1836735E+00 -0.6043058E-04  0.0000000E+00 -0.8482894E-01
  0.1285714E+01  0.0000000E+00  0.1836735E+00 -0.6488054E-04  0.0000000E+00 -0.8485349E-01
  0.1326531E+01  0.0000000E+00  0.1836735E+00 -0.6836160E-04  0.0000000E+00 -0.8487958E-01
  0.1367347E+01  0.0000000E+00  0.1836735E+00 -0.7083423E-04  0.0000000E+00 -0.8490682E-01
  0.1408163E+01  0.0000000E+00  0.1836735E+00 -0.7227633E-04  0.0000000E+00 -0.8493481E-01
  0.1448980E+01  0.0000000E+00  0.1836735E+00 -0.7268252E-04  0.0000000E+00 -0.8496314E-01
  0.1489796E+01  0.0000000E+00  0.1836735E+00 -0.7206306E-04  0.0000000E+00 -0.8499142E-01
  0.1530612E+01  0.0000000E+00  0.1836735E+00 -0.7044278E-04  0.0000000E+00 -0.8501923E-01
  0.1571429E+01  0.0000000E+00  0.1836735E+00 -0.6785966E-04  0.0000000E+00 -0.8504621E-01
  0.1612245E+01  0.0000000E+00  0.1836735E+00 -0.6436347E-04  0.0000000E+00 -0.8507199E-01
  0.1653061E+01  0.0000000E+00  0.1836735E+00 -0.6001424E-04  0.0000000E+00 -0.8509622E-01
  0.1693878E+01  0.0000000E+00  0.1836735E+00 -0.5488097E-04  0.0000000E+00 -0.8511859E-01
  0.1734694E+01  0.0000000E+00  0.1836735E+00 -0.4904045E-04  0.0000000E+00 -0.8513882E-01
  0.1775510E+01  0.0000000E+00  0.1836735E+00 -0.4257604E-04  0.0000000E+00 -0.8515664E-01
  0.1816326E+01  0.0000000E+00  0.1836735E+00 -0.3557657E-04  0.0000000E+00 -0.8517184E-01
  0.1857143E+01  0.0000000E+00  0.1836735E+00 -0.2813521E-04  0.0000000E+00 -0.8518422E-01
  0.1897959E+01  0.0000000E+00  0.1836735E+00 -0.2034764E-04  0.0000000E+00 -0.8519365E-01
  0.1938776E+01  0.0000000E+00  0.1836735E+00 -0.1231004E-04  0.0000000E+00 -0.8519999E-01
  0.1989796E+01  0.0000000E+00  0.1836735E+00 -0.4122096E-05  0.0000000E+00 -0.8520318E-01
  0.2040816E-01  0.0000000E+00  0.2244898E+00  0.4501343E-05  0.0000000E+00 -0.8506351E-01
  0.6122449E-01  0.0000000E+00  0.2244898E+00  0.1342087E-04  0.0000000E+00 -0.8506033E-01
  0.1020408E+00  0.0000000E+00  0.2244898E+00  0.2211793E-04  0.0000000E+00 -0.8505402E-01
  0.1428571E+00  0.0000000E+00  0.2244898E+00  0.3043587E-04  0.0000000E+00 -0.8504468E-01
  0.1836735E+00  0.0000000E+00  0.2244898E+00  0.3824187E-04  0.0000000E+00 -0.8503247E-01
  0.2244898E+00  0.0000000E+00  0.2244898E+00  0.4539550E-04  0.0000000E+00 -0.8501759E-01
  0.2653061E+00  0.0000000E+00  0.2244898E+00  0.5175952E-04  0.0000000E+00 -0.8500028E-01
  0.3061225E+00  0.0000000E+00  0.2244898E+00  0.5720638E-04  0.0000000E+00 -0.8498085E-01
  0.3469388E+00  0.0000000E+00  0.2244898E+00  0.6162067E-04  0.0000000E+00 -0.8495963E-01
  0.3877551E+00  0.0000000E+00  0.2244898E+00  0.6490072E-04  0.0000000E+00 -0.8493701E-01
  0.4285714E+00  0.0000000E+00  0.2244898E+00  0.6696097E-04  0.0000000E+00 -0.8491339E-01
  0.4693878E+00  0.0000000E+00  0.2244898E+00  0.6773516E-04  0.0000000E+00 -0.8488923E-01
  0.5102041E+00  0.0000000E+00  0.2244898E+00  0.6718039E-04  0.0000000E+00 -0.8486499E-01
  0.5510204E+00  0.0000000E+00  0.2244898E+00  0.6528173E-04  0.0000000E+00 -0.8484116E-01
  0.5918368E+00  0.0000000E+00  0.2244898E+00  0.6205624E-04  0.0000000E+00 -0.8481823E-01
  0.6326531E+00  0.0000000E+00  0.2244898E+00  0.5755472E-04  0.0000000E+00 -0.8479666E-01
  0.6734694E+00  0.0000000E+00  0.2244898E+00  0.5185850E-04  0.0000000E+00 -0.8477691E-01
  0.7142857E+00  0.0000000E+00  0.2244898E+00  0.4507208E-04  0.0000000E+00 -0.8475938E-01
  0.7551020E+00  0.0000000E+00  0.2244898E+00  0.3731823E-04  0.0000000E+00 -0.8474444E-01
  0.7959183E+00  0.0000000E+00  0.2244898E+00  0.2873574E-04  0.0000000E+00 -0.8473242E-01
  0.8367347E+00  0.0000000E+00  0.2244898E+00  0.1947787E-04  0.0000000E+00 -0.8472358E-01
  0.8775510E+00  0.0000000E+00  0.2244898E+00  0.9721098E-05  0.0000000E+00 -0.8471815E-01
  0.9183673E+00  0.0000000E+00  0.2244898E+00 -0.3489107E-06  0.0000000E+00 -0.8471627E-01
  0.9591837E+00  0.0000000E+00  0.2244898E+00 -0.1054310E-04  0.0000000E+00 -0.8471801E-01
  0.1000000E+01  0.0000000E+00  0.2244898E+00 -0.2064386E-04  0.0000000E+00 -0.8472338E-01
  0.1040816E+01  0.0000000E+00  0.2244898E+00 -0.3048038E-04  0.0000000E+00 -0.8473231E-01
  0.1081633E+01  0.0000000E+00  0.2244898E+00 -0.3986679E-04  0.0000000E+00 -0.8474465E-01
  0.1122449E+01  0.0000000E+00  0.2244898E+00 -0.4865989E-04  0.0000000E+00 -0.8476021E-01
  0.1163265E+01  0.0000000E+00  0.2244898E+00 -0.5671621E-04  0.0000000E+00 -0.8477875E-01
  0.1204082E+01  0.0000000E+00  0.2244898E+00 -0.6390563E-04  0.0000000E+00 -0.8479998E-01
  0.1244898E+01  0.0000000E+00  0.2244898E+00 -0.7011863E-04  0.0000000E+00 -0.8482356E-01
  0.1285714E+01  0.0000000E+00  0.2244898E+00 -0.7526771E-04  0.0000000E+00 -0.8484912E-01
  0.1326531E+01  0.0000000E+00  0.2244898E+00 -0.7928722E-04  0.0000000E+00 -0.8487628E-01
  0.1367347E+01  0.0000000E+00  0.2244898E+00 -0.8213269E-04  0.0000000E+00 -0.8490463E-01
  0.1408163E+01  0.0000000E+00  0.2244898E+00 -0.8378008E-04  0.0000000E+00 -0.8493374E-01
  0.1448980E+01  0.0000000E+00  0.2244898E+00 -0.8422490E-04  0.0000000E+00 -0.8496319E-01
  0.1489796E+01  0.0000000E+00  0.2244898E+00 -0.8348084E-04  0.0000000E+00 -0.8499256E-01
  0.1530612E+01  0.0000000E+00  0.2244898E+00 -0.8157832E-04  0.0000000E+00 -0.8502144E-01
  0.1571429E+01  0.0000000E+00  0.2244898E+00 -0.7856290E-04  0.0000000E+00 -0.8504944E-01
  0.1612245E+01  0.0000000E+00  0.2244898E+00 -0.7449350E-04  0.0000000E+00 -0.8507617E-01
  0.1653061E+01  0.0000000E+00  0.2244898E+00 -0.6944070E-04  0.0000000E+00 -0.8510128E-01
  0.1693878E+01  0.0000000E+00  0.2244898E+00 -0.6348507E-04  0.0000000E+00 -0.8512446E-01
  0.1734694E+01  0.0000000E+00  0.2244898E+00 -0.5671588E-04  0.0000000E+00 -0.8514541E-01
  0.1775510E+01  0.0000000E+00  0.2244898E+00 -0.4922975E-04  0.0000000E+00 -0.8516385E-01
  0.1816326E+01  0.0000000E+00  0.2244898E+00 -0.4112938E-04  0.0000000E+00 -0.8517958E-01
  0.1857143E+01  0.0000000E+00  0.2244898E+00 -0.3252212E-04  0.0000000E+00 -0.8519239E-01
  0.1897959E+01  0.0000000E+00  0.2244898E+00 -0.2351790E-04  0.0000000E+00 -0.8520214E-01
  0.1938776E+01  0.0000000E+00  0.2244898E+00 -0.1422674E-04  0.0000000E+00 -0.8520870E-01
  0.1989796E+01  0.0000000E+00  0.2244898E+00 -0.4763607E-05  0.0000000E+00 -0.8521200E-01
  0.2040816E-01  0.0000000E+00  0.2653061E+00  0.5114217E-05  0.0000000E+00 -0.8507299E-01
  0.6122449E-01  0.0000000E+00  0.2653061E+00  0.1525002E-04  0.0000000E+00 -0.8506965E-01
  0.1020408E+00  0.0000000E+00  0.2653061E+00  0.2513629E-04  0.0000000E+00 -0.8506302E-01
  0.1428571E+00  0.0000000E+00  0.2653061E+00  0.3459807E-04  0.0000000E+00 -0.8505321E-01
  0.1836735E+00  0.0000000E+00  0.2653061E+00  0.4348470E-04  0.0000000E+00 -0.8504037E-01
  0.2244898E+00  0.0000000E+00  0.2653061E+00  0.5163783E-04  0.0000000E+00 -0.8502472E-01
  0.2653061E+00  0.0000000E+00  0.2653061E+00  0.5890243E-04  0.0000000E+00 -0.8500650E-01
  0.3061225E+00  0.0000000E+00  0.2653061E+00  0.6513356E-04  0.0000000E+00 -0.8498603E-01
  0.3469388E+00  0.0000000E+00  0.2653061E+00  0.7019887E-04  0.0000000E+00 -0.8496366E-01
  0.3877551E+00  0.0000000E+00  0.2653061E+00  0.7398041E-04  0.0000000E+00 -0.8493977E-01
  0.4285714E+00  0.0000000E+00  0.2653061E+00  0.7637718E-04  0.0000000E+00 -0.8491482E-01
  0.4693878E+00  0.0000000E+00  0.2653061E+00  0.7730879E-04  0.0000000E+00 -0.8488925E-01
  0.5102041E+00  0.0000000E+00  0.2653061E+00  0.7672053E-04  0.0000000E+00 -0.8486358E-01
  0.5510204E+00  0.0000000E+00  0.2653061E+00  0.7458997E-04  0.0000000E+00 -0.8483832E-01
  0.5918368E+00  0.0000000E+00  0.2653061E+00  0.7093418E-04  0.0000000E+00 -0.8481399E-01
  0.6326531E+00  0.0000000E+00  0.2653061E+00  0.6581431E-04  0.0000000E+00 -0.8479110E-01
  0.6734694E+00  0.0000000E+00  0.2653061E+00  0.5933081E-04  0.0000000E+00 -0.8477012E-01
  0.7142857E+00  0.0000000E+00  0.2653061E+00  0.5160670E-04  0.0000000E+00 -0.8475149E-01
  0.7551020E+00  0.0000000E+00  0.2653061E+00  0.4278059E-04  0.0000000E+00 -0.8473559E-01
  0.7959183E+00  0.0000000E+00  0.2653061E+00  0.3300682E-04  0.0000000E+00 -0.8472275E-01
  0.8367347E+00  0.0000000E+00  0.2653061E+00  0.2245649E-04  0.0000000E+00 -0.8471328E-01
  0.8775510E+00  0.0000000E+00  0.2653061E+00  0.1132605E-04  0.0000000E+00 -0.8470741E-01
  0.9183673E+00  0.0000000E+00  0.2653061E+00 -0.1630884E-06  0.0000000E+00 -0.8470530E-01
  0.9591837E+00  0.0000000E+00  0.2653061E+00 -0.1178705E-04  0.0000000E+00 -0.8470704E-01
  0.1000000E+01  0.0000000E+00  0.2653061E+00 -0.2329285E-04  0.0000000E+00 -0.8471260E-01
  0.1040816E+01  0.0000000E+00  0.2653061E+00 -0.3448372E-04  0.0000000E+00 -0.8472191E-01
  0.1081633E+01  0.0000000E+00  0.2653061E+00 -0.4515116E-04  0.0000000E+00 -0.8473482E-01
  0.1122449E+01  0.0000000E+00  0.2653061E+00 -0.5513311E-04  0.0000000E+00 -0.8475110E-01
  0.1163265E+01  0.0000000E+00  0.2653061E+00 -0.6426842E-04  0.0000000E+00 -0.8477051E-01
  0.1204082E+01  0.0000000E+00  0.2653061E+00 -0.7241094E-04  0.0000000E+00 -0.8479273E-01
  0.1244898E+01  0.0000000E+00  0.2653061E+00 -0.7943764E-04  0.0000000E+00 -0.8481740E-01
  0.1285714E+01  0.0000000E+00  0.2653061E+00 -0.8525050E-04  0.0000000E+00 -0.8484414E-01
  0.1326531E+01  0.0000000E+00  0.2653061E+00 -0.8977656E-04  0.0000000E+00 -0.8487253E-01