title = "dataset feddes"
variables = "x", "y", "z", "vx", "vy", "vz"
zone t = "velocities, solution time =  9.000E+00 days        " i =   49, j =   49, k =    1,  f=point
  0.2040816E-01  0.0000000E+00  0.2040816E-01  0.2586103E-07  0.0000000E+00 -0.8634054E-01
  0.6122449E-01  0.0000000E+00  0.2040816E-01  0.7710997E-07  0.0000000E+00 -0.8634043E-01
  0.1020408E+00  0.0000000E+00  0.2040816E-01  0.1270975E-06  0.0000000E+00 -0.8634020E-01
  0.1428571E+00  0.0000000E+00  0.2040816E-01  0.1750157E-06  0.0000000E+00 -0.8633985E-01
  0.1836735E+00  0.0000000E+00  0.2040816E-01  0.2200610E-06  0.0000000E+00 -0.8633940E-01
  0.2244898E+00  0.0000000E+00  0.2040816E-01  0.2614351E-06  0.0000000E+00 -0.8633885E-01
  0.2653061E+00  0.0000000E+00  0.2040816E-01  0.2984701E-06  0.0000000E+00 -0.8633822E-01
  0.3061225E+00  0.0000000E+00  0.2040816E-01  0.3305394E-06  0.0000000E+00 -0.8633750E-01
  0.3469388E+00  0.0000000E+00  0.2040816E-01  0.3570038E-06  0.0000000E+00 -0.8633672E-01
  0.3877551E+00  0.0000000E+00  0.2040816E-01  0.3773989E-06  0.0000000E+00 -0.8633588E-01
  0.4285714E+00  0.0000000E+00  0.2040816E-01  0.3913365E-06  0.0000000E+00 -0.8633501E-01
  0.4693878E+00  0.0000000E+00  0.2040816E-01  0.3984885E-06  0.0000000E+00 -0.8633411E-01
  0.5102041E+00  0.0000000E+00  0.2040816E-01  0.3986583E-06  0.0000000E+00 -0.8633320E-01
  0.5510204E+00  0.0000000E+00  0.2040816E-01  0.3917743E-06  0.0000000E+00 -0.8633230E-01
  0.5918368E+00  0.0000000E+00  0.2040816E-01  0.3778773E-06  0.0000000E+00 -0.8633143E-01
  0.6326531E+00  0.0000000E+00  0.2040816E-01  0.3571288E-06  0.0000000E+00 -0.8633059E-01
  0.6734694E+00  0.0000000E+00  0.2040816E-01  0.3298186E-06  0.0000000E+00 -0.8632981E-01
  0.7142857E+00  0.0000000E+00  0.2040816E-01  0.2963608E-06  0.0000000E+00 -0.8632910E-01
  0.7551020E+00  0.0000000E+00  0.2040816E-01  0.2572876E-06  0.0000000E+00 -0.8632847E-01
  0.7959183E+00  0.0000000E+00  0.2040816E-01  0.2132408E-06  0.0000000E+00 -0.8632793E-01
  0.8367347E+00  0.0000000E+00  0.2040816E-01  0.1649616E-06  0.0000000E+00 -0.8632750E-01
  0.8775510E+00  0.0000000E+00  0.2040816E-01  0.1132754E-06  0.0000000E+00 -0.8632719E-01
  0.9183673E+00  0.0000000E+00  0.2040816E-01  0.5907331E-07  0.0000000E+00 -0.8632699E-01
  0.9591837E+00  0.0000000E+00  0.2040816E-01  0.3298247E-08  0.0000000E+00 -0.8632692E-01
  0.1000000E+01  0.0000000E+00  0.2040816E-01 -0.5325379E-07  0.0000000E+00 -0.8632698E-01
  0.1040816E+01  0.0000000E+00  0.2040816E-01 -0.1094075E-06  0.0000000E+00 -0.8632716E-01
  0.1081633E+01  0.0000000E+00  0.2040816E-01 -0.1639231E-06  0.0000000E+00 -0.8632747E-01
  0.1122449E+01  0.0000000E+00  0.2040816E-01 -0.2161356E-06  0.0000000E+00 -0.8632790E-01
  0.1163265E+01  0.0000000E+00  0.2040816E-01 -0.2651643E-06  0.0000000E+00 -0.8632845E-01
  0.1204082E+01  0.0000000E+00  0.2040816E-01 -0.3101305E-06  0.0000000E+00 -0.8632911E-01
  0.1244898E+01  0.0000000E+00  0.2040816E-01 -0.3502377E-06  0.0000000E+00 -0.8632986E-01
  0.1285714E+01  0.0000000E+00  0.2040816E-01 -0.3849074E-06  0.0000000E+00 -0.8633069E-01
  0.1326531E+01  0.0000000E+00  0.2040816E-01 -0.4134848E-06  0.0000000E+00 -0.8633160E-01
  0.1367347E+01  0.0000000E+00  0.2040816E-01 -0.4355666E-06  0.0000000E+00 -0.8633257E-01
  0.1408163E+01  0.0000000E+00  0.2040816E-01 -0.4508547E-06  0.0000000E+00 -0.8633358E-01
  0.1448980E+01  0.0000000E+00  0.2040816E-01 -0.4591138E-06  0.0000000E+00 -0.8633461E-01
  0.1489796E+01  0.0000000E+00  0.2040816E-01 -0.4602634E-06  0.0000000E+00 -0.8633566E-01
  0.1530612E+01  0.0000000E+00  0.2040816E-01 -0.4543516E-06  0.0000000E+00 -0.8633670E-01
  0.1571429E+01  0.0000000E+00  0.2040816E-01 -0.4415182E-06  0.0000000E+00 -0.8633772E-01
  0.1612245E+01  0.0000000E+00  0.2040816E-01 -0.4220069E-06  0.0000000E+00 -0.8633870E-01
  0.1653061E+01  0.0000000E+00  0.2040816E-01 -0.3961679E-06  0.0000000E+00 -0.8633963E-01
  0.1693878E+01  0.0000000E+00  0.2040816E-01 -0.3644391E-06  0.0000000E+00 -0.8634050E-01
  0.1734694E+01  0.0000000E+00  0.2040816E-01 -0.3273317E-06  0.0000000E+00 -0.8634128E-01
  0.1775510E+01  0.0000000E+00  0.2040816E-01 -0.2854233E-06  0.0000000E+00 -0.8634198E-01
  0.1816326E+01  0.0000000E+00  0.2040816E-01 -0.2393519E-06  0.0000000E+00 -0.8634258E-01
  0.1857143E+01  0.0000000E+00  0.2040816E-01 -0.1898050E-06  0.0000000E+00 -0.8634307E-01
  0.1897959E+01  0.0000000E+00  0.2040816E-01 -0.1375085E-06  0.0000000E+00 -0.8634344E-01
  0.1938776E+01  0.0000000E+00  0.2040816E-01 -0.8321417E-07  0.0000000E+00 -0.8634369E-01
  0.1989796E+01  0.0000000E+00  0.2040816E-01 -0.2767787E-07  0.0000000E+00 -0.8634382E-01
  0.2040816E-01  0.0000000E+00  0.6122449E-01  0.7088361E-07  0.0000000E+00 -0.8634063E-01
  0.6122449E-01  0.0000000E+00  0.6122449E-01  0.2113895E-06  0.0000000E+00 -0.8634052E-01
  0.1020408E+00  0.0000000E+00  0.6122449E-01  0.3484725E-06  0.0000000E+00 -0.8634028E-01
  0.1428571E+00  0.0000000E+00  0.6122449E-01  0.4798480E-06  0.0000000E+00 -0.8633993E-01
  0.1836735E+00  0.0000000E+00  0.6122449E-01  0.6033599E-06  0.0000000E+00 -0.8633948E-01
  0.2244898E+00  0.0000000E+00  0.6122449E-01  0.7168494E-06  0.0000000E+00 -0.8633892E-01
  0.2653061E+00  0.0000000E+00  0.6122449E-01  0.8184213E-06  0.0000000E+00 -0.8633827E-01
  0.3061225E+00  0.0000000E+00  0.6122449E-01  0.9063774E-06  0.0000000E+00 -0.8633755E-01
  0.3469388E+00  0.0000000E+00  0.6122449E-01  0.9790036E-06  0.0000000E+00 -0.8633675E-01
  0.3877551E+00  0.0000000E+00  0.6122449E-01  0.1034991E-05  0.0000000E+00 -0.8633590E-01
  0.4285714E+00  0.0000000E+00  0.6122449E-01  0.1073265E-05  0.0000000E+00 -0.8633502E-01
  0.4693878E+00  0.0000000E+00  0.6122449E-01  0.1092943E-05  0.0000000E+00 -0.8633410E-01
  0.5102041E+00  0.0000000E+00  0.6122449E-01  0.1093479E-05  0.0000000E+00 -0.8633318E-01
  0.5510204E+00  0.0000000E+00  0.6122449E-01  0.1074669E-05  0.0000000E+00 -0.8633227E-01
  0.5918368E+00  0.0000000E+00  0.6122449E-01  0.1036621E-05  0.0000000E+00 -0.8633138E-01
  0.6326531E+00  0.0000000E+00  0.6122449E-01  0.9797772E-06  0.0000000E+00 -0.8633053E-01
  0.6734694E+00  0.0000000E+00  0.6122449E-01  0.9049297E-06  0.0000000E+00 -0.8632973E-01
  0.7142857E+00  0.0000000E+00  0.6122449E-01  0.8132120E-06  0.0000000E+00 -0.8632901E-01
  0.7551020E+00  0.0000000E+00  0.6122449E-01  0.7060820E-06  0.0000000E+00 -0.8632837E-01
  0.7959183E+00  0.0000000E+00  0.6122449E-01  0.5853010E-06  0.0000000E+00 -0.8632783E-01
  0.8367347E+00  0.0000000E+00  0.6122449E-01  0.4529038E-06  0.0000000E+00 -0.8632739E-01
  0.8775510E+00  0.0000000E+00  0.6122449E-01  0.3111548E-06  0.0000000E+00 -0.8632706E-01
  0.9183673E+00  0.0000000E+00  0.6122449E-01  0.1624874E-06  0.0000000E+00 -0.8632686E-01
  0.9591837E+00  0.0000000E+00  0.6122449E-01  0.9425763E-08  0.0000000E+00 -0.8632679E-01
  0.1000000E+01  0.0000000E+00  0.6122449E-01 -0.1456010E-06  0.0000000E+00 -0.8632685E-01
  0.1040816E+01  0.0000000E+00  0.6122449E-01 -0.2995572E-06  0.0000000E+00 -0.8632703E-01
  0.1081633E+01  0.0000000E+00  0.6122449E-01 -0.4491246E-06  0.0000000E+00 -0.8632735E-01
  0.1122449E+01  0.0000000E+00  0.6122449E-01 -0.5923452E-06  0.0000000E+00 -0.8632779E-01
  0.1163265E+01  0.0000000E+00  0.6122449E-01 -0.7267949E-06  0.0000000E+00 -0.8632834E-01
  0.1204082E+01  0.0000000E+00  0.6122449E-01 -0.8501066E-06  0.0000000E+00 -0.8632901E-01
  0.1244898E+01  0.0000000E+00  0.6122449E-01 -0.9600737E-06  0.0000000E+00 -0.8632977E-01
  0.1285714E+01  0.0000000E+00  0.6122449E-01 -0.1055098E-05  0.0000000E+00 -0.8633062E-01
  0.1326531E+01  0.0000000E+00  0.6122449E-01 -0.1133441E-05  0.0000000E+00 -0.8633154E-01
  0.1367347E+01  0.0000000E+00  0.6122449E-01 -0.1193954E-05  0.0000000E+00 -0.8633252E-01
  0.1408163E+01  0.0000000E+00  0.6122449E-01 -0.1235817E-05  0.0000000E+00 -0.8633354E-01
  0.1448980E+01  0.0000000E+00  0.6122449E-01 -0.1258411E-05  0.0000000E+00 -0.8633459E-01
  0.1489796E+01  0.0000000E+00  0.6122449E-01 -0.1261516E-05  0.0000000E+00 -0.8633565E-01
  0.1530612E+01  0.0000000E+00  0.6122449E-01 -0.1245262E-05  0.0000000E+00 -0.8633671E-01
  0.1571429E+01  0.0000000E+00  0.6122449E-01 -0.1210039E-05  0.0000000E+00 -0.8633774E-01
  0.1612245E+01  0.0000000E+00  0.6122449E-01 -0.1156520E-05  0.0000000E+00 -0.8633873E-01
  0.1653061E+01  0.0000000E+00  0.6122449E-01 -0.1085664E-05  0.0000000E+00 -0.8633968E-01
  0.1693878E+01  0.0000000E+00  0.6122449E-01 -0.9986751E-06  0.0000000E+00 -0.8634055E-01
  0.1734694E+01  0.0000000E+00  0.6122449E-01 -0.8969570E-06  0.0000000E+00 -0.8634135E-01
  0.1775510E+01  0.0000000E+00  0.6122449E-01 -0.7820958E-06  0.0000000E+00 -0.8634206E-01
  0.1816326E+01  0.0000000E+00  0.6122449E-01 -0.6558396E-06  0.0000000E+00 -0.8634266E-01
  0.1857143E+01  0.0000000E+00  0.6122449E-01 -0.5200715E-06  0.0000000E+00 -0.8634316E-01
  0.1897959E+01  0.0000000E+00  0.6122449E-01 -0.3767810E-06  0.0000000E+00 -0.8634353E-01
  0.1938776E+01  0.0000000E+00  0.6122449E-01 -0.2280394E-06  0.0000000E+00 -0.8634379E-01
  0.1989796E+01  0.0000000E+00  0.6122449E-01 -0.7597023E-07  0.0000000E+00 -0.8634392E-01
  0.2040816E-01  0.0000000E+00  0.1020408E+00  0.1064699E-06  0.0000000E+00 -0.8634078E-01
  0.6122449E-01  0.0000000E+00  0.1020408E+00  0.3175955E-06  0.0000000E+00 -0.8634066E-01
  0.1020408E+00  0.0000000E+00  0.1020408E+00  0.5236307E-06  0.0000000E+00 -0.8634042E-01
  0.1428571E+00  0.0000000E+00  0.1020408E+00  0.7210725E-06  0.0000000E+00 -0.8634006E-01
  0.1836735E+00  0.0000000E+00  0.1020408E+00  0.9067048E-06  0.0000000E+00 -0.8633959E-01
  0.2244898E+00  0.0000000E+00  0.1020408E+00  0.1077355E-05  0.0000000E+00 -0.8633902E-01
  0.2653061E+00  0.0000000E+00  0.1020408E+00  0.1230101E-05  0.0000000E+00 -0.8633836E-01
  0.3061225E+00  0.0000000E+00  0.1020408E+00  0.1362390E-05  0.0000000E+00 -0.8633761E-01
  0.3469388E+00  0.0000000E+00  0.1020408E+00  0.1471708E-05  0.0000000E+00 -0.8633680E-01
  0.3877551E+00  0.0000000E+00  0.1020408E+00  0.1556040E-05  0.0000000E+00 -0.8633593E-01
  0.4285714E+00  0.0000000E+00  0.1020408E+00  0.1613753E-05  0.0000000E+00 -0.8633502E-01
  0.4693878E+00  0.0000000E+00  0.1020408E+00  0.1643532E-05  0.0000000E+00 -0.8633408E-01
  0.5102041E+00  0.0000000E+00  0.1020408E+00  0.1644551E-05  0.0000000E+00 -0.8633313E-01
  0.5510204E+00  0.0000000E+00  0.1020408E+00  0.1616479E-05  0.0000000E+00 -0.8633219E-01
  0.5918368E+00  0.0000000E+00  0.1020408E+00  0.1559470E-05  0.0000000E+00 -0.8633128E-01
  0.6326531E+00  0.0000000E+00  0.1020408E+00  0.1474183E-05  0.0000000E+00 -0.8633040E-01
  0.6734694E+00  0.0000000E+00  0.1020408E+00  0.1361802E-05  0.0000000E+00 -0.8632959E-01
  0.7142857E+00  0.0000000E+00  0.1020408E+00  0.1224023E-05  0.0000000E+00 -0.8632884E-01
  0.7551020E+00  0.0000000E+00  0.1020408E+00  0.1063034E-05  0.0000000E+00 -0.8632818E-01
  0.7959183E+00  0.0000000E+00  0.1020408E+00  0.8814848E-06  0.0000000E+00 -0.8632762E-01
  0.8367347E+00  0.0000000E+00  0.1020408E+00  0.6824388E-06  0.0000000E+00 -0.8632717E-01
  0.8775510E+00  0.0000000E+00  0.1020408E+00  0.4693066E-06  0.0000000E+00 -0.8632684E-01
  0.9183673E+00  0.0000000E+00  0.1020408E+00  0.2457362E-06  0.0000000E+00 -0.8632663E-01
  0.9591837E+00  0.0000000E+00  0.1020408E+00  0.1544264E-07  0.0000000E+00 -0.8632655E-01
  0.1000000E+01  0.0000000E+00  0.1020408E+00 -0.2175807E-06  0.0000000E+00 -0.8632661E-01
  0.1040816E+01  0.0000000E+00  0.1020408E+00 -0.4490132E-06  0.0000000E+00 -0.8632680E-01
  0.1081633E+01  0.0000000E+00  0.1020408E+00 -0.6740000E-06  0.0000000E+00 -0.8632712E-01
  0.1122449E+01  0.0000000E+00  0.1020408E+00 -0.8893835E-06  0.0000000E+00 -0.8632757E-01
  0.1163265E+01  0.0000000E+00  0.1020408E+00 -0.1091511E-05  0.0000000E+00 -0.8632814E-01
  0.1204082E+01  0.0000000E+00  0.1020408E+00 -0.1276880E-05  0.0000000E+00 -0.8632882E-01
  0.1244898E+01  0.0000000E+00  0.1020408E+00 -0.1442153E-05  0.0000000E+00 -0.8632960E-01
  0.1285714E+01  0.0000000E+00  0.1020408E+00 -0.1584869E-05  0.0000000E+00 -0.8633047E-01
  0.1326531E+01  0.0000000E+00  0.1020408E+00 -0.1702531E-05  0.0000000E+00 -0.8633141E-01
  0.1367347E+01  0.0000000E+00  0.1020408E+00 -0.1793364E-05  0.0000000E+00 -0.8633241E-01
  0.1408163E+01  0.0000000E+00  0.1020408E+00 -0.1856126E-05  0.0000000E+00 -0.8633346E-01
  0.1448980E+01  0.0000000E+00  0.1020408E+00 -0.1889931E-05  0.0000000E+00 -0.8633454E-01
  0.1489796E+01  0.0000000E+00  0.1020408E+00 -0.1894448E-05  0.0000000E+00 -0.8633562E-01
  0.1530612E+01  0.0000000E+00  0.1020408E+00 -0.1869880E-05  0.0000000E+00 -0.8633670E-01
  0.1571429E+01  0.0000000E+00  0.1020408E+00 -0.1816835E-05  0.0000000E+00 -0.8633776E-01
  0.1612245E+01  0.0000000E+00  0.1020408E+00 -0.1736335E-05  0.0000000E+00 -0.8633878E-01
  0.1653061E+01  0.0000000E+00  0.1020408E+00 -0.1629824E-05  0.0000000E+00 -0.8633975E-01
  0.1693878E+01  0.0000000E+00  0.1020408E+00 -0.1499116E-05  0.0000000E+00 -0.8634064E-01
  0.1734694E+01  0.0000000E+00  0.1020408E+00 -0.1346329E-05  0.0000000E+00 -0.8634146E-01
  0.1775510E+01  0.0000000E+00  0.1020408E+00 -0.1173850E-05  0.0000000E+00 -0.8634218E-01
  0.1816326E+01  0.0000000E+00  0.1020408E+00 -0.9843041E-06  0.0000000E+00 -0.8634280E-01
  0.1857143E+01  0.0000000E+00  0.1020408E+00 -0.7805175E-06  0.0000000E+00 -0.8634330E-01
  0.1897959E+01  0.0000000E+00  0.1020408E+00 -0.5654740E-06  0.0000000E+00 -0.8634369E-01
  0.1938776E+01  0.0000000E+00  0.1020408E+00 -0.3422953E-06  0.0000000E+00 -0.8634395E-01
  0.1989796E+01  0.0000000E+00  0.1020408E+00 -0.1142328E-06  0.0000000E+00 -0.8634408E-01
  0.2040816E-01  0.0000000E+00  0.1428571E+00  0.1377104E-06  0.0000000E+00 -0.8634097E-01
  0.6122449E-01  0.0000000E+00  0.1428571E+00  0.4108896E-06  0.0000000E+00 -0.8634084E-01
  0.1020408E+00  0.0000000E+00  0.1428571E+00  0.6775175E-06  0.0000000E+00 -0.8634059E-01
  0.1428571E+00  0.0000000E+00  0.1428571E+00  0.9330684E-06  0.0000000E+00 -0.8634022E-01
  0.1836735E+00  0.0000000E+00  0.1428571E+00  0.1173352E-05  0.0000000E+00 -0.8633974E-01
  0.2244898E+00  0.0000000E+00  0.1428571E+00  0.1394331E-05  0.0000000E+00 -0.8633915E-01
  0.2653061E+00  0.0000000E+00  0.1428571E+00  0.1592202E-05  0.0000000E+00 -0.8633846E-01
  0.3061225E+00  0.0000000E+00  0.1428571E+00  0.1763636E-05  0.0000000E+00 -0.8633769E-01
  0.3469388E+00  0.0000000E+00  0.1428571E+00  0.1905418E-05  0.0000000E+00 -0.8633684E-01
  0.3877551E+00  0.0000000E+00  0.1428571E+00  0.2014913E-05  0.0000000E+00 -0.8633594E-01
  0.4285714E+00  0.0000000E+00  0.1428571E+00  0.2089978E-05  0.0000000E+00 -0.8633500E-01
  0.4693878E+00  0.0000000E+00  0.1428571E+00  0.2128913E-05  0.0000000E+00 -0.8633403E-01
  0.5102041E+00  0.0000000E+00  0.1428571E+00  0.2130625E-05  0.0000000E+00 -0.8633305E-01
  0.5510204E+00  0.0000000E+00  0.1428571E+00  0.2094666E-05  0.0000000E+00 -0.8633207E-01
  0.5918368E+00  0.0000000E+00  0.1428571E+00  0.2021212E-05  0.0000000E+00 -0.8633112E-01
  0.6326531E+00  0.0000000E+00  0.1428571E+00  0.1911103E-05  0.0000000E+00 -0.8633022E-01
  0.6734694E+00  0.0000000E+00  0.1428571E+00  0.1765855E-05  0.0000000E+00 -0.8632937E-01
  0.7142857E+00  0.0000000E+00  0.1428571E+00  0.1587652E-05  0.0000000E+00 -0.8632859E-01
  0.7551020E+00  0.0000000E+00  0.1428571E+00  0.1379322E-05  0.0000000E+00 -0.8632791E-01
  0.7959183E+00  0.0000000E+00  0.1428571E+00  0.1144293E-05  0.0000000E+00 -0.8632732E-01
  0.8367347E+00  0.0000000E+00  0.1428571E+00  0.8865405E-06  0.0000000E+00 -0.8632685E-01
  0.8775510E+00  0.0000000E+00  0.1428571E+00  0.6104938E-06  0.0000000E+00 -0.8632651E-01
  0.9183673E+00  0.0000000E+00  0.1428571E+00  0.3208803E-06  0.0000000E+00 -0.8632629E-01
  0.9591837E+00  0.0000000E+00  0.1428571E+00  0.2248319E-07  0.0000000E+00 -0.8632621E-01
  0.1000000E+01  0.0000000E+00  0.1428571E+00 -0.2793231E-06  0.0000000E+00 -0.8632626E-01
  0.1040816E+01  0.0000000E+00  0.1428571E+00 -0.5790613E-06  0.0000000E+00 -0.8632646E-01
  0.1081633E+01  0.0000000E+00  0.1428571E+00 -0.8705714E-06  0.0000000E+00 -0.8632679E-01
  0.1122449E+01  0.0000000E+00  0.1428571E+00 -0.1149561E-05  0.0000000E+00 -0.8632725E-01
  0.1163265E+01  0.0000000E+00  0.1428571E+00 -0.1411288E-05  0.0000000E+00 -0.8632784E-01
  0.1204082E+01  0.0000000E+00  0.1428571E+00 -0.1651256E-05  0.0000000E+00 -0.8632854E-01
  0.1244898E+01  0.0000000E+00  0.1428571E+00 -0.1865175E-05  0.0000000E+00 -0.8632935E-01
  0.1285714E+01  0.0000000E+00  0.1428571E+00 -0.2049751E-05  0.0000000E+00 -0.8633024E-01
  0.1326531E+01  0.0000000E+00  0.1428571E+00 -0.2201854E-05  0.0000000E+00 -0.8633122E-01
  0.1367347E+01  0.0000000E+00  0.1428571E+00 -0.2319184E-05  0.0000000E+00 -0.8633226E-01
  0.1408163E+01  0.0000000E+00  0.1428571E+00 -0.2400135E-05  0.0000000E+00 -0.8633334E-01
  0.1448980E+01  0.0000000E+00  0.1428571E+00 -0.2443599E-05  0.0000000E+00 -0.8633445E-01
  0.1489796E+01  0.0000000E+00  0.1428571E+00 -0.2449156E-05  0.0000000E+00 -0.8633557E-01
  0.1530612E+01  0.0000000E+00  0.1428571E+00 -0.2417091E-05  0.0000000E+00 -0.8633669E-01
  0.1571429E+01  0.0000000E+00  0.1428571E+00 -0.2348226E-05  0.0000000E+00 -0.8633778E-01
  0.1612245E+01  0.0000000E+00  0.1428571E+00 -0.2243904E-05  0.0000000E+00 -0.8633883E-01
  0.1653061E+01  0.0000000E+00  0.1428571E+00 -0.2106004E-05  0.0000000E+00 -0.8633982E-01
  0.1693878E+01  0.0000000E+00  0.1428571E+00 -0.1936883E-05  0.0000000E+00 -0.8634075E-01
  0.1734694E+01  0.0000000E+00  0.1428571E+00 -0.1739294E-05  0.0000000E+00 -0.8634159E-01
  0.1775510E+01  0.0000000E+00  0.1428571E+00 -0.1516331E-05  0.0000000E+00 -0.8634233E-01
  0.1816326E+01  0.0000000E+00  0.1428571E+00 -0.1271389E-05  0.0000000E+00 -0.8634297E-01
  0.1857143E+01  0.0000000E+00  0.1428571E+00 -0.1008117E-05  0.0000000E+00 -0.8634349E-01
  0.1897959E+01  0.0000000E+00  0.1428571E+00 -0.7303636E-06  0.0000000E+00 -0.8634389E-01
  0.1938776E+01  0.0000000E+00  0.1428571E+00 -0.4421577E-06  0.0000000E+00 -0.8634416E-01
  0.1989796E+01  0.0000000E+00  0.1428571E+00 -0.1477145E-06  0.0000000E+00 -0.8634429E-01
  0.2040816E-01  0.0000000E+00  0.1836735E+00  0.1663524E-06  0.0000000E+00 -0.8634118E-01
  0.6122449E-01  0.0000000E+00  0.1836735E+00  0.4964884E-06  0.0000000E+00 -0.8634105E-01
  0.1020408E+00  0.0000000E+00  0.1836735E+00  0.8187452E-06  0.0000000E+00 -0.8634079E-01
  0.1428571E+00  0.0000000E+00  0.1836735E+00  0.1127679E-05  0.0000000E+00 -0.8634041E-01
  0.1836735E+00  0.0000000E+00  0.1836735E+00  0.1418220E-05  0.0000000E+00 -0.8633990E-01
  0.2244898E+00  0.0000000E+00  0.1836735E+00  0.1685525E-05  0.0000000E+00 -0.8633929E-01
  0.2653061E+00  0.0000000E+00  0.1836735E+00  0.1925007E-05  0.0000000E+00 -0.8633857E-01
  0.3061225E+00  0.0000000E+00  0.1836735E+00  0.2132612E-05  0.0000000E+00 -0.8633777E-01
  0.3469388E+00  0.0000000E+00  0.1836735E+00  0.2304475E-05  0.0000000E+00 -0.8633689E-01
  0.3877551E+00  0.0000000E+00  0.1836735E+00  0.2437386E-05  0.0000000E+00 -0.8633595E-01
  0.4285714E+00  0.0000000E+00  0.1836735E+00  0.2528724E-05  0.0000000E+00 -0.8633496E-01
  0.4693878E+00  0.0000000E+00  0.1836735E+00  0.2576413E-05  0.0000000E+00 -0.8633395E-01
  0.5102041E+00  0.0000000E+00  0.1836735E+00  0.2579105E-05  0.0000000E+00 -0.8633292E-01
  0.5510204E+00  0.0000000E+00  0.1836735E+00  0.2536221E-05  0.0000000E+00 -0.8633191E-01
  0.5918368E+00  0.0000000E+00  0.1836735E+00  0.2447944E-05  0.0000000E+00 -0.8633092E-01
  0.6326531E+00  0.0000000E+00  0.1836735E+00  0.2315261E-05  0.0000000E+00 -0.8632997E-01
  0.6734694E+00  0.0000000E+00  0.1836735E+00  0.2139983E-05  0.0000000E+00 -0.8632908E-01
  0.7142857E+00  0.0000000E+00  0.1836735E+00  0.1924735E-05  0.0000000E+00 -0.8632827E-01
  0.7551020E+00  0.0000000E+00  0.1836735E+00  0.1672924E-05  0.0000000E+00 -0.8632755E-01
  0.7959183E+00  0.0000000E+00  0.1836735E+00  0.1388696E-05  0.0000000E+00 -0.8632694E-01
  0.8367347E+00  0.0000000E+00  0.1836735E+00  0.1076868E-05  0.0000000E+00 -0.8632644E-01
  0.8775510E+00  0.0000000E+00  0.1836735E+00  0.7428170E-06  0.0000000E+00 -0.8632608E-01
  0.9183673E+00  0.0000000E+00  0.1836735E+00  0.3922867E-06  0.0000000E+00 -0.8632585E-01
  0.9591837E+00  0.0000000E+00  0.1836735E+00  0.3105835E-07  0.0000000E+00 -0.8632576E-01
  0.1000000E+01  0.0000000E+00  0.1836735E+00 -0.3342265E-06  0.0000000E+00 -0.8632582E-01
  0.1040816E+01  0.0000000E+00  0.1836735E+00 -0.6969654E-06  0.0000000E+00 -0.8632602E-01
  0.1081633E+01  0.0000000E+00  0.1836735E+00 -0.1049849E-05  0.0000000E+00 -0.8632636E-01
  0.1122449E+01  0.0000000E+00  0.1836735E+00 -0.1387494E-05  0.0000000E+00 -0.8632684E-01
  0.1163265E+01  0.0000000E+00  0.1836735E+00 -0.1704112E-05  0.0000000E+00 -0.8632745E-01
  0.1204082E+01  0.0000000E+00  0.1836735E+00 -0.1994275E-05  0.0000000E+00 -0.8632818E-01
  0.1244898E+01  0.0000000E+00  0.1836735E+00 -0.2252881E-05  0.0000000E+00 -0.8632902E-01
  0.1285714E+01  0.0000000E+00  0.1836735E+00 -0.2475846E-05  0.0000000E+00 -0.8632995E-01
  0.1326531E+01  0.0000000E+00  0.1836735E+00 -0.2659443E-05  0.0000000E+00 -0.8633097E-01
  0.1367347E+01  0.0000000E+00  0.1836735E+00 -0.2800908E-05  0.0000000E+00 -0.8633204E-01
  0.1408163E+01  0.0000000E+00  0.1836735E+00 -0.2898324E-05  0.0000000E+00 -0.8633317E-01
  0.1448980E+01  0.0000000E+00  0.1836735E+00 -0.2950404E-05  0.0000000E+00 -0.8633432E-01
  0.1489796E+01  0.0000000E+00  0.1836735E+00 -0.2956660E-05  0.0000000E+00 -0.8633549E-01
  0.1530612E+01  0.0000000E+00  0.1836735E+00 -0.2917465E-05  0.0000000E+00 -0.8633665E-01
  0.1571429E+01  0.0000000E+00  0.1836735E+00 -0.2833864E-05  0.0000000E+00 -0.8633778E-01
  0.1612245E+01  0.0000000E+00  0.1836735E+00 -0.2707519E-05  0.0000000E+00 -0.8633887E-01
  0.1653061E+01  0.0000000E+00  0.1836735E+00 -0.2540722E-05  0.0000000E+00 -0.8633991E-01
  0.1693878E+01  0.0000000E+00  0.1836735E+00 -0.2336335E-05  0.0000000E+00 -0.8634087E-01
  0.1734694E+01  0.0000000E+00  0.1836735E+00 -0.2097702E-05  0.0000000E+00 -0.8634174E-01
  0.1775510E+01  0.0000000E+00  0.1836735E+00 -0.1828568E-05  0.0000000E+00 -0.8634251E-01
  0.1816326E+01  0.0000000E+00  0.1836735E+00 -0.1533031E-05  0.0000000E+00 -0.8634317E-01
  0.1857143E+01  0.0000000E+00  0.1836735E+00 -0.1215489E-05  0.0000000E+00 -0.8634371E-01
  0.1897959E+01  0.0000000E+00  0.1836735E+00 -0.8805784E-06  0.0000000E+00 -0.8634412E-01
  0.1938776E+01  0.0000000E+00  0.1836735E+00 -0.5331356E-06  0.0000000E+00 -0.8634440E-01
  0.1989796E+01  0.0000000E+00  0.1836735E+00 -0.1782255E-06  0.0000000E+00 -0.8634454E-01
  0.2040816E-01  0.0000000E+00  0.2244898E+00  0.1934412E-06  0.0000000E+00 -0.8634142E-01
  0.6122449E-01  0.0000000E+00  0.2244898E+00  0.5775047E-06  0.0000000E+00 -0.8634129E-01
  0.1020408E+00  0.0000000E+00  0.2244898E+00  0.9524656E-06  0.0000000E+00 -0.8634101E-01
  0.1428571E+00  0.0000000E+00  0.2244898E+00  0.1312004E-05  0.0000000E+00 -0.8634061E-01
  0.1836735E+00  0.0000000E+00  0.2244898E+00  0.1650245E-05  0.0000000E+00 -0.8634008E-01
  0.2244898E+00  0.0000000E+00  0.2244898E+00  0.1961583E-05  0.0000000E+00 -0.8633944E-01
  0.2653061E+00  0.0000000E+00  0.2244898E+00  0.2240693E-05  0.0000000E+00 -0.8633869E-01
  0.3061225E+00  0.0000000E+00  0.2244898E+00  0.2482837E-05  0.0000000E+00 -0.8633785E-01
  0.3469388E+00  0.0000000E+00  0.2244898E+00  0.2683525E-05  0.0000000E+00 -0.8633693E-01
  0.3877551E+00  0.0000000E+00  0.2244898E+00  0.2838992E-05  0.0000000E+00 -0.8633594E-01
  0.4285714E+00  0.0000000E+00  0.2244898E+00  0.2946148E-05  0.0000000E+00 -0.8633490E-01
  0.4693878E+00  0.0000000E+00  0.2244898E+00  0.3002544E-05  0.0000000E+00 -0.8633384E-01
  0.5102041E+00  0.0000000E+00  0.2244898E+00  0.3006569E-05  0.0000000E+00 -0.8633276E-01
  0.5510204E+00  0.0000000E+00  0.2244898E+00  0.2957498E-05  0.0000000E+00 -0.8633170E-01
  0.5918368E+00  0.0000000E+00  0.2244898E+00  0.2855500E-05  0.0000000E+00 -0.8633065E-01
  0.6326531E+00  0.0000000E+00  0.2244898E+00  0.2701684E-05  0.0000000E+00 -0.8632966E-01
  0.6734694E+00  0.0000000E+00  0.2244898E+00  0.2498123E-05  0.0000000E+00 -0.8632872E-01
  0.7142857E+00  0.0000000E+00  0.2244898E+00  0.2247849E-05  0.0000000E+00 -0.8632787E-01
  0.7551020E+00  0.0000000E+00  0.2244898E+00  0.1954816E-05  0.0000000E+00 -0.8632711E-01
  0.7959183E+00  0.0000000E+00  0.2244898E+00  0.1623850E-05  0.0000000E+00 -0.8632646E-01
  0.8367347E+00  0.0000000E+00  0.2244898E+00  0.1260569E-05  0.0000000E+00 -0.8632594E-01
  0.8775510E+00  0.0000000E+00  0.2244898E+00  0.8712604E-06  0.0000000E+00 -0.8632555E-01
  0.9183673E+00  0.0000000E+00  0.2244898E+00  0.4626668E-06  0.0000000E+00 -0.8632531E-01
  0.9591837E+00  0.0000000E+00  0.2244898E+00  0.4153256E-07  0.0000000E+00 -0.8632521E-01
  0.1000000E+01  0.0000000E+00  0.2244898E+00 -0.3843170E-06  0.0000000E+00 -0.8632527E-01
  0.1040816E+01  0.0000000E+00  0.2244898E+00 -0.8071163E-06  0.0000000E+00 -0.8632547E-01
  0.1081633E+01  0.0000000E+00  0.2244898E+00 -0.1218477E-05  0.0000000E+00 -0.8632583E-01
  0.1122449E+01  0.0000000E+00  0.2244898E+00 -0.1612006E-05  0.0000000E+00 -0.8632633E-01
  0.1163265E+01  0.0000000E+00  0.2244898E+00 -0.1980859E-05  0.0000000E+00 -0.8632697E-01
  0.1204082E+01  0.0000000E+00  0.2244898E+00 -0.2318698E-05  0.0000000E+00 -0.8632773E-01
  0.1244898E+01  0.0000000E+00  0.2244898E+00 -0.2619650E-05  0.0000000E+00 -0.8632861E-01
  0.1285714E+01  0.0000000E+00  0.2244898E+00 -0.2878925E-05  0.0000000E+00 -0.8632959E-01
  0.1326531E+01  0.0000000E+00  0.2244898E+00 -0.3092219E-05  0.0000000E+00 -0.8633065E-01
  0.1367347E+01  0.0000000E+00  0.2244898E+00 -0.3256328E-05  0.0000000E+00 -0.8633178E-01
  0.1408163E+01  0.0000000E+00  0.2244898E+00 -0.3369059E-05  0.0000000E+00 -0.8633295E-01
  0.1448980E+01  0.0000000E+00  0.2244898E+00 -0.3428993E-05  0.0000000E+00 -0.8633416E-01
  0.1489796E+01  0.0000000E+00  0.2244898E+00 -0.3435600E-05  0.0000000E+00 -0.8633538E-01
  0.1530612E+01  0.0000000E+00  0.2244898E+00 -0.3389350E-05  0.0000000E+00 -0.8633659E-01
  0.1571429E+01  0.0000000E+00  0.2244898E+00 -0.3291525E-05  0.0000000E+00 -0.8633777E-01
  0.1612245E+01  0.0000000E+00  0.2244898E+00 -0.3144120E-05  0.0000000E+00 -0.8633891E-01
  0.1653061E+01  0.0000000E+00  0.2244898E+00 -0.2949833E-05  0.0000000E+00 -0.8633999E-01
  0.1693878E+01  0.0000000E+00  0.2244898E+00 -0.2712019E-05  0.0000000E+00 -0.8634099E-01
  0.1734694E+01  0.0000000E+00  0.2244898E+00 -0.2434585E-05  0.0000000E+00 -0.8634190E-01
  0.1775510E+01  0.0000000E+00  0.2244898E+00 -0.2121899E-05  0.0000000E+00 -0.8634271E-01
  0.1816326E+01  0.0000000E+00  0.2244898E+00 -0.1778723E-05  0.0000000E+00 -0.8634340E-01
  0.1857143E+01  0.0000000E+00  0.2244898E+00 -0.1410149E-05  0.0000000E+00 -0.8634396E-01
  0.1897959E+01  0.0000000E+00  0.2244898E+00 -0.1021550E-05  0.0000000E+00 -0.8634439E-01
  0.1938776E+01  0.0000000E+00  0.2244898E+00 -0.6185091E-06  0.0000000E+00 -0.8634468E-01
  0.1989796E+01  0.0000000E+00  0.2244898E+00 -0.2068637E-06  0.0000000E+00 -0.8634482E-01
  0.2040816E-01  0.0000000E+00  0.2653061E+00  0.2197079E-06  0.0000000E+00 -0.8634169E-01
  0.6122449E-01  0.0000000E+00  0.2653061E+00  0.6560983E-06  0.0000000E+00 -0.8634154E-01
  0.1020408E+00  0.0000000E+00  0.2653061E+00  0.1082241E-05  0.0000000E+00 -0.8634126E-01
  0.1428571E+00  0.0000000E+00  0.2653061E+00  0.1490957E-05  0.0000000E+00 -0.8634083E-01
  0.1836735E+00  0.0000000E+00  0.2653061E+00  0.1875619E-05  0.0000000E+00 -0.8634028E-01
  0.2244898E+00  0.0000000E+00  0.2653061E+00  0.2229885E-05  0.0000000E+00 -0.8633960E-01
  0.2653061E+00  0.0000000E+00  0.2653061E+00  0.2547718E-05  0.0000000E+00 -0.8633881E-01
  0.3061225E+00  0.0000000E+00  0.2653061E+00  0.2823716E-05  0.0000000E+00 -0.8633793E-01
  0.3469388E+00  0.0000000E+00  0.2653061E+00  0.3052773E-05  0.0000000E+00 -0.8633695E-01
  0.3877551E+00  0.0000000E+00  0.2653061E+00  0.3230573E-05  0.0000000E+00 -0.8633592E-01
  0.4285714E+00  0.0000000E+00  0.2653061E+00  0.3353552E-05  0.0000000E+00 -0.8633482E-01
  0.4693878E+00  0.0000000E+00  0.2653061E+00  0.3418878E-05  0.0000000E+00 -0.8633370E-01
  0.5102041E+00  0.0000000E+00  0.2653061E+00  0.3424659E-05  0.0000000E+00 -0.8633257E-01
  0.5510204E+00  0.0000000E+00  0.2653061E+00  0.3370004E-05  0.0000000E+00 -0.8633144E-01
  0.5918368E+00  0.0000000E+00  0.2653061E+00  0.3255045E-05  0.0000000E+00 -0.8633034E-01
  0.6326531E+00  0.0000000E+00  0.2653061E+00  0.3080986E-05  0.0000000E+00 -0.8632928E-01
  0.6734694E+00  0.0000000E+00  0.2653061E+00  0.2850139E-05  0.0000000E+00 -0.8632829E-01
  0.7142857E+00  0.0000000E+00  0.2653061E+00  0.2565916E-05  0.0000000E+00 -0.8632739E-01
  0.7551020E+00  0.0000000E+00  0.2653061E+00  0.2232797E-05  0.0000000E+00 -0.8632658E-01
  0.7959183E+00  0.0000000E+00  0.2653061E+00  0.1856270E-05  0.0000000E+00 -0.8632590E-01
  0.8367347E+00  0.0000000E+00  0.2653061E+00  0.1442744E-05  0.0000000E+00 -0.8632534E-01
  0.8775510E+00  0.0000000E+00  0.2653061E+00  0.9993951E-06  0.0000000E+00 -0.8632493E-01
  0.9183673E+00  0.0000000E+00  0.2653061E+00  0.5339701E-06  0.0000000E+00 -0.8632467E-01
  0.9591837E+00  0.0000000E+00  0.2653061E+00  0.5419653E-07  0.0000000E+00 -0.8632456E-01
  0.1000000E+01  0.0000000E+00  0.2653061E+00 -0.4309836E-06  0.0000000E+00 -0.8632462E-01
  0.1040816E+01  0.0000000E+00  0.2653061E+00 -0.9126024E-06  0.0000000E+00 -0.8632483E-01
  0.1081633E+01  0.0000000E+00  0.2653061E+00 -0.1381164E-05  0.0000000E+00 -0.8632521E-01
  0.1122449E+01  0.0000000E+00  0.2653061E+00 -0.1829323E-05  0.0000000E+00 -0.8632573E-01
  0.1163265E+01  0.0000000E+00  0.2653061E+00 -0.2249191E-05  0.0000000E+00 -0.8632640E-01
  0.1204082E+01  0.0000000E+00  0.2653061E+00 -0.2633512E-05  0.0000000E+00 -0.8632720E-01
  0.1244898E+01  0.0000000E+00  0.2653061E+00 -0.2975629E-05  0.0000000E+00 -0.8632813E-01
  0.1285714E+01  0.0000000E+00  0.2653061E+00 -0.3270097E-05  0.0000000E+00 -0.8632915E-01
  0.1326531E+01  0.0000000E+00  0.2653061E+00 -0.3512071E-05  0.0000000E+00 -0.8633027E-01