title = "dataset feddes"
variables = "x", "y", "z", "vx", "vy", "vz"
zone t = "velocities, solution time =  5.200E+01 days        " i =   49, j =   49, k =    1,  f=point
  0.2040816E-01  0.0000000E+00  0.2040816E-01  0.5813548E-06  0.0000000E+00 -0.8506673E-01
  0.6122449E-01  0.0000000E+00  0.2040816E-01  0.1735848E-05  0.0000000E+00 -0.8506410E-01
  0.1020408E+00  0.0000000E+00  0.2040816E-01  0.2859793E-05  0.0000000E+00 -0.8505888E-01
  0.1428571E+00  0.0000000E+00  0.2040816E-01  0.3931293E-05  0.0000000E+00 -0.8505117E-01
  0.1836735E+00  0.0000000E+00  0.2040816E-01  0.4935770E-05  0.0000000E+00 -0.8504110E-01
  0.2244898E+00  0.0000000E+00  0.2040816E-01  0.5854693E-05  0.0000000E+00 -0.8502885E-01
  0.2653061E+00  0.0000000E+00  0.2040816E-01  0.6669655E-05  0.0000000E+00 -0.8501463E-01
  0.3061225E+00  0.0000000E+00  0.2040816E-01  0.7364124E-05  0.0000000E+00 -0.8499869E-01
  0.3469388E+00  0.0000000E+00  0.2040816E-01  0.7923708E-05  0.0000000E+00 -0.8498134E-01
  0.3877551E+00  0.0000000E+00  0.2040816E-01  0.8336207E-05  0.0000000E+00 -0.8496288E-01
  0.4285714E+00  0.0000000E+00  0.2040816E-01  0.8591783E-05  0.0000000E+00 -0.8494366E-01
  0.4693878E+00  0.0000000E+00  0.2040816E-01  0.8683243E-05  0.0000000E+00 -0.8492405E-01
  0.5102041E+00  0.0000000E+00  0.2040816E-01  0.8606340E-05  0.0000000E+00 -0.8490442E-01
  0.5510204E+00  0.0000000E+00  0.2040816E-01  0.8360052E-05  0.0000000E+00 -0.8488516E-01
  0.5918368E+00  0.0000000E+00  0.2040816E-01  0.7946752E-05  0.0000000E+00 -0.8486665E-01
  0.6326531E+00  0.0000000E+00  0.2040816E-01  0.7372260E-05  0.0000000E+00 -0.8484926E-01
  0.6734694E+00  0.0000000E+00  0.2040816E-01  0.6645772E-05  0.0000000E+00 -0.8483335E-01
  0.7142857E+00  0.0000000E+00  0.2040816E-01  0.5779707E-05  0.0000000E+00 -0.8481924E-01
  0.7551020E+00  0.0000000E+00  0.2040816E-01  0.4789448E-05  0.0000000E+00 -0.8480725E-01
  0.7959183E+00  0.0000000E+00  0.2040816E-01  0.3692984E-05  0.0000000E+00 -0.8479762E-01
  0.8367347E+00  0.0000000E+00  0.2040816E-01  0.2510512E-05  0.0000000E+00 -0.8479058E-01
  0.8775510E+00  0.0000000E+00  0.2040816E-01  0.1263797E-05  0.0000000E+00 -0.8478629E-01
  0.9183673E+00  0.0000000E+00  0.2040816E-01 -0.2471468E-07  0.0000000E+00 -0.8478489E-01
  0.9591837E+00  0.0000000E+00  0.2040816E-01 -0.1332443E-05  0.0000000E+00 -0.8478643E-01
  0.1000000E+01  0.0000000E+00  0.2040816E-01 -0.2634209E-05  0.0000000E+00 -0.8479093E-01
  0.1040816E+01  0.0000000E+00  0.2040816E-01 -0.3906051E-05  0.0000000E+00 -0.8479835E-01
  0.1081633E+01  0.0000000E+00  0.2040816E-01 -0.5122801E-05  0.0000000E+00 -0.8480860E-01
  0.1122449E+01  0.0000000E+00  0.2040816E-01 -0.6268955E-05  0.0000000E+00 -0.8482153E-01
  0.1163265E+01  0.0000000E+00  0.2040816E-01 -0.7325137E-05  0.0000000E+00 -0.8483696E-01
  0.1204082E+01  0.0000000E+00  0.2040816E-01 -0.8272925E-05  0.0000000E+00 -0.8485467E-01
  0.1244898E+01  0.0000000E+00  0.2040816E-01 -0.9096908E-05  0.0000000E+00 -0.8487438E-01
  0.1285714E+01  0.0000000E+00  0.2040816E-01 -0.9784853E-05  0.0000000E+00 -0.8489582E-01
  0.1326531E+01  0.0000000E+00  0.2040816E-01 -0.1032746E-04  0.0000000E+00 -0.8491865E-01
  0.1367347E+01  0.0000000E+00  0.2040816E-01 -0.1071813E-04  0.0000000E+00 -0.8494254E-01
  0.1408163E+01  0.0000000E+00  0.2040816E-01 -0.1095284E-04  0.0000000E+00 -0.8496714E-01
  0.1448980E+01  0.0000000E+00  0.2040816E-01 -0.1103005E-04  0.0000000E+00 -0.8499210E-01
  0.1489796E+01  0.0000000E+00  0.2040816E-01 -0.1095062E-04  0.0000000E+00 -0.8501706E-01
  0.1530612E+01  0.0000000E+00  0.2040816E-01 -0.1071767E-04  0.0000000E+00 -0.8504166E-01
  0.1571429E+01  0.0000000E+00  0.2040816E-01 -0.1033658E-04  0.0000000E+00 -0.8506557E-01
  0.1612245E+01  0.0000000E+00  0.2040816E-01 -0.9814582E-05  0.0000000E+00 -0.8508845E-01
  0.1653061E+01  0.0000000E+00  0.2040816E-01 -0.9160338E-05  0.0000000E+00 -0.8511000E-01
  0.1693878E+01  0.0000000E+00  0.2040816E-01 -0.8384096E-05  0.0000000E+00 -0.8512992E-01
  0.1734694E+01  0.0000000E+00  0.2040816E-01 -0.7497615E-05  0.0000000E+00 -0.8514795E-01
  0.1775510E+01  0.0000000E+00  0.2040816E-01 -0.6513710E-05  0.0000000E+00 -0.8516387E-01
  0.1816326E+01  0.0000000E+00  0.2040816E-01 -0.5445957E-05  0.0000000E+00 -0.8517745E-01
  0.1857143E+01  0.0000000E+00  0.2040816E-01 -0.4308777E-05  0.0000000E+00 -0.8518853E-01
  0.1897959E+01  0.0000000E+00  0.2040816E-01 -0.3117298E-05  0.0000000E+00 -0.8519696E-01
  0.1938776E+01  0.0000000E+00  0.2040816E-01 -0.1886886E-05  0.0000000E+00 -0.8520264E-01
  0.1989796E+01  0.0000000E+00  0.2040816E-01 -0.6329024E-06  0.0000000E+00 -0.8520551E-01
  0.2040816E-01  0.0000000E+00  0.6122449E-01  0.1595139E-05  0.0000000E+00 -0.8506903E-01
  0.6122449E-01  0.0000000E+00  0.6122449E-01  0.4759911E-05  0.0000000E+00 -0.8506636E-01
  0.1020408E+00  0.0000000E+00  0.6122449E-01  0.7842082E-05  0.0000000E+00 -0.8506106E-01
  0.1428571E+00  0.0000000E+00  0.6122449E-01  0.1078230E-04  0.0000000E+00 -0.8505324E-01
  0.1836735E+00  0.0000000E+00  0.6122449E-01  0.1353838E-04  0.0000000E+00 -0.8504301E-01
  0.2244898E+00  0.0000000E+00  0.6122449E-01  0.1605968E-04  0.0000000E+00 -0.8503057E-01
  0.2653061E+00  0.0000000E+00  0.6122449E-01  0.1829618E-04  0.0000000E+00 -0.8501612E-01
  0.3061225E+00  0.0000000E+00  0.6122449E-01  0.2020268E-04  0.0000000E+00 -0.8499993E-01
  0.3469388E+00  0.0000000E+00  0.6122449E-01  0.2173965E-04  0.0000000E+00 -0.8498229E-01
  0.3877551E+00  0.0000000E+00  0.6122449E-01  0.2287347E-04  0.0000000E+00 -0.8496353E-01
  0.4285714E+00  0.0000000E+00  0.6122449E-01  0.2357699E-04  0.0000000E+00 -0.8494399E-01
  0.4693878E+00  0.0000000E+00  0.6122449E-01  0.2383027E-04  0.0000000E+00 -0.8492405E-01
  0.5102041E+00  0.0000000E+00  0.6122449E-01  0.2362150E-04  0.0000000E+00 -0.8490408E-01
  0.5510204E+00  0.0000000E+00  0.6122449E-01  0.2294774E-04  0.0000000E+00 -0.8488449E-01
  0.5918368E+00  0.0000000E+00  0.6122449E-01  0.2181542E-04  0.0000000E+00 -0.8486565E-01
  0.6326531E+00  0.0000000E+00  0.6122449E-01  0.2024050E-04  0.0000000E+00 -0.8484795E-01
  0.6734694E+00  0.0000000E+00  0.6122449E-01  0.1824824E-04  0.0000000E+00 -0.8483174E-01
  0.7142857E+00  0.0000000E+00  0.6122449E-01  0.1587274E-04  0.0000000E+00 -0.8481737E-01
  0.7551020E+00  0.0000000E+00  0.6122449E-01  0.1315631E-04  0.0000000E+00 -0.8480515E-01
  0.7959183E+00  0.0000000E+00  0.6122449E-01  0.1014836E-04  0.0000000E+00 -0.8479533E-01
  0.8367347E+00  0.0000000E+00  0.6122449E-01  0.6904306E-05  0.0000000E+00 -0.8478813E-01
  0.8775510E+00  0.0000000E+00  0.6122449E-01  0.3483899E-05  0.0000000E+00 -0.8478374E-01
  0.9183673E+00  0.0000000E+00  0.6122449E-01 -0.5196134E-07  0.0000000E+00 -0.8478228E-01
  0.9591837E+00  0.0000000E+00  0.6122449E-01 -0.3640029E-05  0.0000000E+00 -0.8478381E-01
  0.1000000E+01  0.0000000E+00  0.6122449E-01 -0.7209324E-05  0.0000000E+00 -0.8478835E-01
  0.1040816E+01  0.0000000E+00  0.6122449E-01 -0.1069720E-04  0.0000000E+00 -0.8479585E-01
  0.1081633E+01  0.0000000E+00  0.6122449E-01 -0.1403551E-04  0.0000000E+00 -0.8480622E-01
  0.1122449E+01  0.0000000E+00  0.6122449E-01 -0.1717882E-04  0.0000000E+00 -0.8481931E-01
  0.1163265E+01  0.0000000E+00  0.6122449E-01 -0.2007413E-04  0.0000000E+00 -0.8483495E-01
  0.1204082E+01  0.0000000E+00  0.6122449E-01 -0.2267160E-04  0.0000000E+00 -0.8485288E-01
  0.1244898E+01  0.0000000E+00  0.6122449E-01 -0.2492935E-04  0.0000000E+00 -0.8487286E-01
  0.1285714E+01  0.0000000E+00  0.6122449E-01 -0.2681388E-04  0.0000000E+00 -0.8489458E-01
  0.1326531E+01  0.0000000E+00  0.6122449E-01 -0.2829964E-04  0.0000000E+00 -0.8491770E-01
  0.1367347E+01  0.0000000E+00  0.6122449E-01 -0.2936867E-04  0.0000000E+00 -0.8494190E-01
  0.1408163E+01  0.0000000E+00  0.6122449E-01 -0.3001004E-04  0.0000000E+00 -0.8496682E-01
  0.1448980E+01  0.0000000E+00  0.6122449E-01 -0.3021978E-04  0.0000000E+00 -0.8499209E-01
  0.1489796E+01  0.0000000E+00  0.6122449E-01 -0.3000044E-04  0.0000000E+00 -0.8501736E-01
  0.1530612E+01  0.0000000E+00  0.6122449E-01 -0.2936053E-04  0.0000000E+00 -0.8504226E-01
  0.1571429E+01  0.0000000E+00  0.6122449E-01 -0.2831472E-04  0.0000000E+00 -0.8506646E-01
  0.1612245E+01  0.0000000E+00  0.6122449E-01 -0.2688308E-04  0.0000000E+00 -0.8508961E-01
  0.1653061E+01  0.0000000E+00  0.6122449E-01 -0.2508966E-04  0.0000000E+00 -0.8511141E-01
  0.1693878E+01  0.0000000E+00  0.6122449E-01 -0.2296248E-04  0.0000000E+00 -0.8513157E-01
  0.1734694E+01  0.0000000E+00  0.6122449E-01 -0.2053356E-04  0.0000000E+00 -0.8514981E-01
  0.1775510E+01  0.0000000E+00  0.6122449E-01 -0.1783812E-04  0.0000000E+00 -0.8516591E-01
  0.1816326E+01  0.0000000E+00  0.6122449E-01 -0.1491350E-04  0.0000000E+00 -0.8517964E-01
  0.1857143E+01  0.0000000E+00  0.6122449E-01 -0.1179907E-04  0.0000000E+00 -0.8519084E-01
  0.1897959E+01  0.0000000E+00  0.6122449E-01 -0.8536105E-05  0.0000000E+00 -0.8519937E-01
  0.1938776E+01  0.0000000E+00  0.6122449E-01 -0.5166644E-05  0.0000000E+00 -0.8520512E-01
  0.1989796E+01  0.0000000E+00  0.6122449E-01 -0.1732292E-05  0.0000000E+00 -0.8520801E-01
  0.2040816E-01  0.0000000E+00  0.1020408E+00  0.2398962E-05  0.0000000E+00 -0.8507304E-01
  0.6122449E-01  0.0000000E+00  0.1020408E+00  0.7154899E-05  0.0000000E+00 -0.8507030E-01
  0.1020408E+00  0.0000000E+00  0.1020408E+00  0.1178838E-04  0.0000000E+00 -0.8506487E-01
  0.1428571E+00  0.0000000E+00  0.1020408E+00  0.1621190E-04  0.0000000E+00 -0.8505683E-01
  0.1836735E+00  0.0000000E+00  0.1020408E+00  0.2035862E-04  0.0000000E+00 -0.8504634E-01
  0.2244898E+00  0.0000000E+00  0.1020408E+00  0.2415266E-04  0.0000000E+00 -0.8503356E-01
  0.2653061E+00  0.0000000E+00  0.1020408E+00  0.2751960E-04  0.0000000E+00 -0.8501872E-01
  0.3061225E+00  0.0000000E+00  0.1020408E+00  0.3039176E-04  0.0000000E+00 -0.8500209E-01
  0.3469388E+00  0.0000000E+00  0.1020408E+00  0.3270949E-04  0.0000000E+00 -0.8498396E-01
  0.3877551E+00  0.0000000E+00  0.1020408E+00  0.3442184E-04  0.0000000E+00 -0.8496467E-01
  0.4285714E+00  0.0000000E+00  0.1020408E+00  0.3548740E-04  0.0000000E+00 -0.8494457E-01
  0.4693878E+00  0.0000000E+00  0.1020408E+00  0.3587565E-04  0.0000000E+00 -0.8492405E-01
  0.5102041E+00  0.0000000E+00  0.1020408E+00  0.3556831E-04  0.0000000E+00 -0.8490349E-01
  0.5510204E+00  0.0000000E+00  0.1020408E+00  0.3456051E-04  0.0000000E+00 -0.8488331E-01
  0.5918368E+00  0.0000000E+00  0.1020408E+00  0.3286169E-04  0.0000000E+00 -0.8486390E-01
  0.6326531E+00  0.0000000E+00  0.1020408E+00  0.3049584E-04  0.0000000E+00 -0.8484565E-01
  0.6734694E+00  0.0000000E+00  0.1020408E+00  0.2750109E-04  0.0000000E+00 -0.8482894E-01
  0.7142857E+00  0.0000000E+00  0.1020408E+00  0.2392890E-04  0.0000000E+00 -0.8481411E-01
  0.7551020E+00  0.0000000E+00  0.1020408E+00  0.1984307E-04  0.0000000E+00 -0.8480148E-01
  0.7959183E+00  0.0000000E+00  0.1020408E+00  0.1531816E-04  0.0000000E+00 -0.8479132E-01
  0.8367347E+00  0.0000000E+00  0.1020408E+00  0.1043742E-04  0.0000000E+00 -0.8478386E-01
  0.8775510E+00  0.0000000E+00  0.1020408E+00  0.5290691E-05  0.0000000E+00 -0.8477929E-01
  0.9183673E+00  0.0000000E+00  0.1020408E+00 -0.2977510E-07  0.0000000E+00 -0.8477772E-01
  0.9591837E+00  0.0000000E+00  0.1020408E+00 -0.5428209E-05  0.0000000E+00 -0.8477923E-01
  0.1000000E+01  0.0000000E+00  0.1020408E+00 -0.1079490E-04  0.0000000E+00 -0.8478383E-01
  0.1040816E+01  0.0000000E+00  0.1020408E+00 -0.1603899E-04  0.0000000E+00 -0.8479147E-01
  0.1081633E+01  0.0000000E+00  0.1020408E+00 -0.2105985E-04  0.0000000E+00 -0.8480206E-01
  0.1122449E+01  0.0000000E+00  0.1020408E+00 -0.2578467E-04  0.0000000E+00 -0.8481545E-01
  0.1163265E+01  0.0000000E+00  0.1020408E+00 -0.3013382E-04  0.0000000E+00 -0.8483143E-01
  0.1204082E+01  0.0000000E+00  0.1020408E+00 -0.3403351E-04  0.0000000E+00 -0.8484977E-01
  0.1244898E+01  0.0000000E+00  0.1020408E+00 -0.3742160E-04  0.0000000E+00 -0.8487020E-01
  0.1285714E+01  0.0000000E+00  0.1020408E+00 -0.4024813E-04  0.0000000E+00 -0.8489241E-01
  0.1326531E+01  0.0000000E+00  0.1020408E+00 -0.4247480E-04  0.0000000E+00 -0.8491605E-01
  0.1367347E+01  0.0000000E+00  0.1020408E+00 -0.4407483E-04  0.0000000E+00 -0.8494079E-01
  0.1408163E+01  0.0000000E+00  0.1020408E+00 -0.4503212E-04  0.0000000E+00 -0.8496625E-01
  0.1448980E+01  0.0000000E+00  0.1020408E+00 -0.4534118E-04  0.0000000E+00 -0.8499207E-01
  0.1489796E+01  0.0000000E+00  0.1020408E+00 -0.4500648E-04  0.0000000E+00 -0.8501787E-01
  0.1530612E+01  0.0000000E+00  0.1020408E+00 -0.4404121E-04  0.0000000E+00 -0.8504330E-01
  0.1571429E+01  0.0000000E+00  0.1020408E+00 -0.4246724E-04  0.0000000E+00 -0.8506800E-01
  0.1612245E+01  0.0000000E+00  0.1020408E+00 -0.4031491E-04  0.0000000E+00 -0.8509163E-01
  0.1653061E+01  0.0000000E+00  0.1020408E+00 -0.3762107E-04  0.0000000E+00 -0.8511387E-01
  0.1693878E+01  0.0000000E+00  0.1020408E+00 -0.3442796E-04  0.0000000E+00 -0.8513443E-01
  0.1734694E+01  0.0000000E+00  0.1020408E+00 -0.3078328E-04  0.0000000E+00 -0.8515304E-01
  0.1775510E+01  0.0000000E+00  0.1020408E+00 -0.2673990E-04  0.0000000E+00 -0.8516944E-01
  0.1816326E+01  0.0000000E+00  0.1020408E+00 -0.2235419E-04  0.0000000E+00 -0.8518345E-01
  0.1857143E+01  0.0000000E+00  0.1020408E+00 -0.1768500E-04  0.0000000E+00 -0.8519486E-01
  0.1897959E+01  0.0000000E+00  0.1020408E+00 -0.1279367E-04  0.0000000E+00 -0.8520356E-01
  0.1938776E+01  0.0000000E+00  0.1020408E+00 -0.7742810E-05  0.0000000E+00 -0.8520941E-01
  0.1989796E+01  0.0000000E+00  0.1020408E+00 -0.2594747E-05  0.0000000E+00 -0.8521236E-01
  0.2040816E-01  0.0000000E+00  0.1428571E+00  0.3105833E-05  0.0000000E+00 -0.8507851E-01
  0.6122449E-01  0.0000000E+00  0.1428571E+00  0.9261903E-05  0.0000000E+00 -0.8507567E-01
  0.1020408E+00  0.0000000E+00  0.1428571E+00  0.1526086E-04  0.0000000E+00 -0.8507005E-01
  0.1428571E+00  0.0000000E+00  0.1428571E+00  0.2099163E-04  0.0000000E+00 -0.8506174E-01
  0.1836735E+00  0.0000000E+00  0.1428571E+00  0.2636528E-04  0.0000000E+00 -0.8505087E-01
  0.2244898E+00  0.0000000E+00  0.1428571E+00  0.3128390E-04  0.0000000E+00 -0.8503764E-01
  0.2653061E+00  0.0000000E+00  0.1428571E+00  0.3565188E-04  0.0000000E+00 -0.8502227E-01
  0.3061225E+00  0.0000000E+00  0.1428571E+00  0.3938173E-04  0.0000000E+00 -0.8500504E-01
  0.3469388E+00  0.0000000E+00  0.1428571E+00  0.4239587E-04  0.0000000E+00 -0.8498624E-01
  0.3877551E+00  0.0000000E+00  0.1428571E+00  0.4462754E-04  0.0000000E+00 -0.8496622E-01
  0.4285714E+00  0.0000000E+00  0.1428571E+00  0.4602213E-04  0.0000000E+00 -0.8494536E-01
  0.4693878E+00  0.0000000E+00  0.1428571E+00  0.4653901E-04  0.0000000E+00 -0.8492405E-01
  0.5102041E+00  0.0000000E+00  0.1428571E+00  0.4615342E-04  0.0000000E+00 -0.8490268E-01
  0.5510204E+00  0.0000000E+00  0.1428571E+00  0.4485829E-04  0.0000000E+00 -0.8488170E-01
  0.5918368E+00  0.0000000E+00  0.1428571E+00  0.4266538E-04  0.0000000E+00 -0.8486150E-01
  0.6326531E+00  0.0000000E+00  0.1428571E+00  0.3960577E-04  0.0000000E+00 -0.8484250E-01
  0.6734694E+00  0.0000000E+00  0.1428571E+00  0.3572921E-04  0.0000000E+00 -0.8482509E-01
  0.7142857E+00  0.0000000E+00  0.1428571E+00  0.3110270E-04  0.0000000E+00 -0.8480963E-01
  0.7551020E+00  0.0000000E+00  0.1428571E+00  0.2580918E-04  0.0000000E+00 -0.8479645E-01
  0.7959183E+00  0.0000000E+00  0.1428571E+00  0.1994552E-04  0.0000000E+00 -0.8478583E-01
  0.8367347E+00  0.0000000E+00  0.1428571E+00  0.1361946E-04  0.0000000E+00 -0.8477801E-01
  0.8775510E+00  0.0000000E+00  0.1428571E+00  0.6947126E-05  0.0000000E+00 -0.8477318E-01
  0.9183673E+00  0.0000000E+00  0.1428571E+00  0.5094870E-07  0.0000000E+00 -0.8477147E-01
  0.9591837E+00  0.0000000E+00  0.1428571E+00 -0.6945431E-05  0.0000000E+00 -0.8477296E-01
  0.1000000E+01  0.0000000E+00  0.1428571E+00 -0.1389820E-04  0.0000000E+00 -0.8477764E-01
  0.1040816E+01  0.0000000E+00  0.1428571E+00 -0.2068969E-04  0.0000000E+00 -0.8478548E-01
  0.1081633E+01  0.0000000E+00  0.1428571E+00 -0.2719131E-04  0.0000000E+00 -0.8479637E-01
  0.1122449E+01  0.0000000E+00  0.1428571E+00 -0.3330564E-04  0.0000000E+00 -0.8481015E-01
  0.1163265E+01  0.0000000E+00  0.1428571E+00 -0.3892979E-04  0.0000000E+00 -0.8482662E-01
  0.1204082E+01  0.0000000E+00  0.1428571E+00 -0.4396908E-04  0.0000000E+00 -0.8484552E-01
  0.1244898E+01  0.0000000E+00  0.1428571E+00 -0.4834399E-04  0.0000000E+00 -0.8486657E-01
  0.1285714E+01  0.0000000E+00  0.1428571E+00 -0.5199071E-04  0.0000000E+00 -0.8488944E-01
  0.1326531E+01  0.0000000E+00  0.1428571E+00 -0.5486013E-04  0.0000000E+00 -0.8491380E-01
  0.1367347E+01  0.0000000E+00  0.1428571E+00 -0.5691823E-04  0.0000000E+00 -0.8493926E-01
  0.1408163E+01  0.0000000E+00  0.1428571E+00 -0.5814472E-04  0.0000000E+00 -0.8496547E-01
  0.1448980E+01  0.0000000E+00  0.1428571E+00 -0.5853306E-04  0.0000000E+00 -0.8499204E-01
  0.1489796E+01  0.0000000E+00  0.1428571E+00 -0.5809001E-04  0.0000000E+00 -0.8501858E-01
  0.1530612E+01  0.0000000E+00  0.1428571E+00 -0.5683372E-04  0.0000000E+00 -0.8504472E-01
  0.1571429E+01  0.0000000E+00  0.1428571E+00 -0.5479281E-04  0.0000000E+00 -0.8507010E-01
  0.1612245E+01  0.0000000E+00  0.1428571E+00 -0.5200653E-04  0.0000000E+00 -0.8509438E-01
  0.1653061E+01  0.0000000E+00  0.1428571E+00 -0.4852314E-04  0.0000000E+00 -0.8511722E-01
  0.1693878E+01  0.0000000E+00  0.1428571E+00 -0.4439794E-04  0.0000000E+00 -0.8513833E-01
  0.1734694E+01  0.0000000E+00  0.1428571E+00 -0.3969232E-04  0.0000000E+00 -0.8515742E-01
  0.1775510E+01  0.0000000E+00  0.1428571E+00 -0.3447425E-04  0.0000000E+00 -0.8517426E-01
  0.1816326E+01  0.0000000E+00  0.1428571E+00 -0.2881682E-04  0.0000000E+00 -0.8518862E-01
  0.1857143E+01  0.0000000E+00  0.1428571E+00 -0.2279603E-04  0.0000000E+00 -0.8520033E-01
  0.1897959E+01  0.0000000E+00  0.1428571E+00 -0.1649013E-04  0.0000000E+00 -0.8520924E-01
  0.1938776E+01  0.0000000E+00  0.1428571E+00 -0.9978767E-05  0.0000000E+00 -0.8521525E-01
  0.1989796E+01  0.0000000E+00  0.1428571E+00 -0.3342852E-05  0.0000000E+00 -0.8521827E-01
  0.2040816E-01  0.0000000E+00  0.1836735E+00  0.3754816E-05  0.0000000E+00 -0.8508529E-01
  0.6122449E-01  0.0000000E+00  0.1836735E+00  0.1119719E-04  0.0000000E+00 -0.8508234E-01
  0.1020408E+00  0.0000000E+00  0.1836735E+00  0.1845134E-04  0.0000000E+00 -0.8507649E-01
  0.1428571E+00  0.0000000E+00  0.1836735E+00  0.2538528E-04  0.0000000E+00 -0.8506783E-01
  0.1836735E+00  0.0000000E+00  0.1836735E+00  0.3189004E-04  0.0000000E+00 -0.8505651E-01
  0.2244898E+00  0.0000000E+00  0.1836735E+00  0.3784781E-04  0.0000000E+00 -0.8504272E-01
  0.2653061E+00  0.0000000E+00  0.1836735E+00  0.4314364E-04  0.0000000E+00 -0.8502669E-01
  0.3061225E+00  0.0000000E+00  0.1836735E+00  0.4767181E-04  0.0000000E+00 -0.8500870E-01
  0.3469388E+00  0.0000000E+00  0.1836735E+00  0.5133788E-04  0.0000000E+00 -0.8498908E-01
  0.3877551E+00  0.0000000E+00  0.1836735E+00  0.5405994E-04  0.0000000E+00 -0.8496817E-01
  0.4285714E+00  0.0000000E+00  0.1836735E+00  0.5577036E-04  0.0000000E+00 -0.8494635E-01
  0.4693878E+00  0.0000000E+00  0.1836735E+00  0.5641813E-04  0.0000000E+00 -0.8492405E-01
  0.5102041E+00  0.0000000E+00  0.1836735E+00  0.5597149E-04  0.0000000E+00 -0.8490168E-01
  0.5510204E+00  0.0000000E+00  0.1836735E+00  0.5442046E-04  0.0000000E+00 -0.8487969E-01
  0.5918368E+00  0.0000000E+00  0.1836735E+00  0.5177862E-04  0.0000000E+00 -0.8485852E-01
  0.6326531E+00  0.0000000E+00  0.1836735E+00  0.4808374E-04  0.0000000E+00 -0.8483859E-01
  0.6734694E+00  0.0000000E+00  0.1836735E+00  0.4339678E-04  0.0000000E+00 -0.8482031E-01
  0.7142857E+00  0.0000000E+00  0.1836735E+00  0.3779955E-04  0.0000000E+00 -0.8480406E-01
  0.7551020E+00  0.0000000E+00  0.1836735E+00  0.3139264E-04  0.0000000E+00 -0.8479019E-01
  0.7959183E+00  0.0000000E+00  0.1836735E+00  0.2429348E-04  0.0000000E+00 -0.8477899E-01
  0.8367347E+00  0.0000000E+00  0.1836735E+00  0.1663243E-04  0.0000000E+00 -0.8477072E-01
  0.8775510E+00  0.0000000E+00  0.1836735E+00  0.8549732E-05  0.0000000E+00 -0.8476558E-01
  0.9183673E+00  0.0000000E+00  0.1836735E+00  0.1970109E-06  0.0000000E+00 -0.8476369E-01
  0.9591837E+00  0.0000000E+00  0.1836735E+00 -0.8274945E-05  0.0000000E+00 -0.8476514E-01
  0.1000000E+01  0.0000000E+00  0.1836735E+00 -0.1669120E-04  0.0000000E+00 -0.8476994E-01
  0.1040816E+01  0.0000000E+00  0.1836735E+00 -0.2490786E-04  0.0000000E+00 -0.8477803E-01
  0.1081633E+01  0.0000000E+00  0.1836735E+00 -0.3277034E-04  0.0000000E+00 -0.8478930E-01
  0.1122449E+01  0.0000000E+00  0.1836735E+00 -0.4015866E-04  0.0000000E+00 -0.8480358E-01
  0.1163265E+01  0.0000000E+00  0.1836735E+00 -0.4694909E-04  0.0000000E+00 -0.8482065E-01
  0.1204082E+01  0.0000000E+00  0.1836735E+00 -0.5302817E-04  0.0000000E+00 -0.8484024E-01
  0.1244898E+01  0.0000000E+00  0.1836735E+00 -0.5830053E-04  0.0000000E+00 -0.8486206E-01
  0.1285714E+01  0.0000000E+00  0.1836735E+00 -0.6269018E-04  0.0000000E+00 -0.8488577E-01
  0.1326531E+01  0.0000000E+00  0.1836735E+00 -0.6613866E-04  0.0000000E+00 -0.8491100E-01
  0.1367347E+01  0.0000000E+00  0.1836735E+00 -0.6860594E-04  0.0000000E+00 -0.8493738E-01
  0.1408163E+01  0.0000000E+00  0.1836735E+00 -0.7006867E-04  0.0000000E+00 -0.8496451E-01
  0.1448980E+01  0.0000000E+00  0.1836735E+00 -0.7051983E-04  0.0000000E+00 -0.8499200E-01
  0.1489796E+01  0.0000000E+00  0.1836735E+00 -0.6996863E-04  0.0000000E+00 -0.8501945E-01
  0.1530612E+01  0.0000000E+00  0.1836735E+00 -0.6843851E-04  0.0000000E+00 -0.8504648E-01
  0.1571429E+01  0.0000000E+00  0.1836735E+00 -0.6596519E-04  0.0000000E+00 -0.8507271E-01
  0.1612245E+01  0.0000000E+00  0.1836735E+00 -0.6259638E-04  0.0000000E+00 -0.8509779E-01
  0.1653061E+01  0.0000000E+00  0.1836735E+00 -0.5839067E-04  0.0000000E+00 -0.8512137E-01
  0.1693878E+01  0.0000000E+00  0.1836735E+00 -0.5341572E-04  0.0000000E+00 -0.8514315E-01
  0.1734694E+01  0.0000000E+00  0.1836735E+00 -0.4774578E-04  0.0000000E+00 -0.8516285E-01
  0.1775510E+01  0.0000000E+00  0.1836735E+00 -0.4146215E-04  0.0000000E+00 -0.8518021E-01
  0.1816326E+01  0.0000000E+00  0.1836735E+00 -0.3465283E-04  0.0000000E+00 -0.8519502E-01
  0.1857143E+01  0.0000000E+00  0.1836735E+00 -0.2740966E-04  0.0000000E+00 -0.8520708E-01
  0.1897959E+01  0.0000000E+00  0.1836735E+00 -0.1982616E-04  0.0000000E+00 -0.8521627E-01
  0.1938776E+01  0.0000000E+00  0.1836735E+00 -0.1199649E-04  0.0000000E+00 -0.8522245E-01
  0.1989796E+01  0.0000000E+00  0.1836735E+00 -0.4017964E-05  0.0000000E+00 -0.8522557E-01
  0.2040816E-01  0.0000000E+00  0.2244898E+00  0.4368971E-05  0.0000000E+00 -0.8509331E-01
  0.6122449E-01  0.0000000E+00  0.2244898E+00  0.1302929E-04  0.0000000E+00 -0.8509022E-01
  0.1020408E+00  0.0000000E+00  0.2244898E+00  0.2147291E-04  0.0000000E+00 -0.8508409E-01
  0.1428571E+00  0.0000000E+00  0.2244898E+00  0.2954872E-04  0.0000000E+00 -0.8507503E-01
  0.1836735E+00  0.0000000E+00  0.2244898E+00  0.3712929E-04  0.0000000E+00 -0.8506317E-01
  0.2244898E+00  0.0000000E+00  0.2244898E+00  0.4407829E-04  0.0000000E+00 -0.8504872E-01
  0.2653061E+00  0.0000000E+00  0.2244898E+00  0.5026269E-04  0.0000000E+00 -0.8503192E-01
  0.3061225E+00  0.0000000E+00  0.2244898E+00  0.5555943E-04  0.0000000E+00 -0.8501306E-01
  0.3469388E+00  0.0000000E+00  0.2244898E+00  0.5985768E-04  0.0000000E+00 -0.8499246E-01
  0.3877551E+00  0.0000000E+00  0.2244898E+00  0.6306044E-04  0.0000000E+00 -0.8497048E-01
  0.4285714E+00  0.0000000E+00  0.2244898E+00  0.6508662E-04  0.0000000E+00 -0.8494755E-01
  0.4693878E+00  0.0000000E+00  0.2244898E+00  0.6587398E-04  0.0000000E+00 -0.8492407E-01
  0.5102041E+00  0.0000000E+00  0.2244898E+00  0.6538260E-04  0.0000000E+00 -0.8490051E-01
  0.5510204E+00  0.0000000E+00  0.2244898E+00  0.6359851E-04  0.0000000E+00 -0.8487733E-01
  0.5918368E+00  0.0000000E+00  0.2244898E+00  0.6053651E-04  0.0000000E+00 -0.8485499E-01
  0.6326531E+00  0.0000000E+00  0.2244898E+00  0.5624120E-04  0.0000000E+00 -0.8483395E-01
  0.6734694E+00  0.0000000E+00  0.2244898E+00  0.5078533E-04  0.0000000E+00 -0.8481463E-01
  0.7142857E+00  0.0000000E+00  0.2244898E+00  0.4426558E-04  0.0000000E+00 -0.8479745E-01
  0.7551020E+00  0.0000000E+00  0.2244898E+00  0.3679930E-04  0.0000000E+00 -0.8478276E-01
  0.7959183E+00  0.0000000E+00  0.2244898E+00  0.2852288E-04  0.0000000E+00 -0.8477088E-01
  0.8367347E+00  0.0000000E+00  0.2244898E+00  0.1958792E-04  0.0000000E+00 -0.8476208E-01
  0.8775510E+00  0.0000000E+00  0.2244898E+00  0.1015783E-04  0.0000000E+00 -0.8475655E-01
  0.9183673E+00  0.0000000E+00  0.2244898E+00  0.4129303E-06  0.0000000E+00 -0.8475446E-01
  0.9591837E+00  0.0000000E+00  0.2244898E+00 -0.9467582E-05  0.0000000E+00 -0.8475588E-01
  0.1000000E+01  0.0000000E+00  0.2244898E+00 -0.1927827E-04  0.0000000E+00 -0.8476082E-01
  0.1040816E+01  0.0000000E+00  0.2244898E+00 -0.2884959E-04  0.0000000E+00 -0.8476921E-01
  0.1081633E+01  0.0000000E+00  0.2244898E+00 -0.3800218E-04  0.0000000E+00 -0.8478093E-01
  0.1122449E+01  0.0000000E+00  0.2244898E+00 -0.4659468E-04  0.0000000E+00 -0.8479580E-01
  0.1163265E+01  0.0000000E+00  0.2244898E+00 -0.5448416E-04  0.0000000E+00 -0.8481358E-01
  0.1204082E+01  0.0000000E+00  0.2244898E+00 -0.6154009E-04  0.0000000E+00 -0.8483401E-01
  0.1244898E+01  0.0000000E+00  0.2244898E+00 -0.6765229E-04  0.0000000E+00 -0.8485674E-01
  0.1285714E+01  0.0000000E+00  0.2244898E+00 -0.7273364E-04  0.0000000E+00 -0.8488144E-01
  0.1326531E+01  0.0000000E+00  0.2244898E+00 -0.7671746E-04  0.0000000E+00 -0.8490771E-01
  0.1367347E+01  0.0000000E+00  0.2244898E+00 -0.7955859E-04  0.0000000E+00 -0.8493517E-01
  0.1408163E+01  0.0000000E+00  0.2244898E+00 -0.8123176E-04  0.0000000E+00 -0.8496339E-01
  0.1448980E+01  0.0000000E+00  0.2244898E+00 -0.8173037E-04  0.0000000E+00 -0.8499197E-01
  0.1489796E+01  0.0000000E+00  0.2244898E+00 -0.8106650E-04  0.0000000E+00 -0.8502050E-01
  0.1530612E+01  0.0000000E+00  0.2244898E+00 -0.7926913E-04  0.0000000E+00 -0.8504857E-01
  0.1571429E+01  0.0000000E+00  0.2244898E+00 -0.7638150E-04  0.0000000E+00 -0.8507579E-01
  0.1612245E+01  0.0000000E+00  0.2244898E+00 -0.7246002E-04  0.0000000E+00 -0.8510180E-01
  0.1653061E+01  0.0000000E+00  0.2244898E+00 -0.6757309E-04  0.0000000E+00 -0.8512625E-01
  0.1693878E+01  0.0000000E+00  0.2244898E+00 -0.6180004E-04  0.0000000E+00 -0.8514882E-01
  0.1734694E+01  0.0000000E+00  0.2244898E+00 -0.5522781E-04  0.0000000E+00 -0.8516923E-01
  0.1775510E+01  0.0000000E+00  0.2244898E+00 -0.4795007E-04  0.0000000E+00 -0.8518720E-01
  0.1816326E+01  0.0000000E+00  0.2244898E+00 -0.4006809E-04  0.0000000E+00 -0.8520253E-01
  0.1857143E+01  0.0000000E+00  0.2244898E+00 -0.3168829E-04  0.0000000E+00 -0.8521502E-01
  0.1897959E+01  0.0000000E+00  0.2244898E+00 -0.2291873E-04  0.0000000E+00 -0.8522452E-01
  0.1938776E+01  0.0000000E+00  0.2244898E+00 -0.1386677E-04  0.0000000E+00 -0.8523092E-01
  0.1989796E+01  0.0000000E+00  0.2244898E+00 -0.4644126E-05  0.0000000E+00 -0.8523414E-01
  0.2040816E-01  0.0000000E+00  0.2653061E+00  0.4963895E-05  0.0000000E+00 -0.8510249E-01
  0.6122449E-01  0.0000000E+00  0.2653061E+00  0.1480465E-04  0.0000000E+00 -0.8509925E-01
  0.1020408E+00  0.0000000E+00  0.2653061E+00  0.2440226E-04  0.0000000E+00 -0.8509282E-01
  0.1428571E+00  0.0000000E+00  0.2653061E+00  0.3358788E-04  0.0000000E+00 -0.8508329E-01
  0.1836735E+00  0.0000000E+00  0.2653061E+00  0.4221670E-04  0.0000000E+00 -0.8507083E-01
  0.2244898E+00  0.0000000E+00  0.2653061E+00  0.5013495E-04  0.0000000E+00 -0.8505563E-01
  0.2653061E+00  0.0000000E+00  0.2653061E+00  0.5719232E-04  0.0000000E+00 -0.8503795E-01
  0.3061225E+00  0.0000000E+00  0.2653061E+00  0.6324889E-04  0.0000000E+00 -0.8501808E-01
  0.3469388E+00  0.0000000E+00  0.2653061E+00  0.6817757E-04  0.0000000E+00 -0.8499636E-01
  0.3877551E+00  0.0000000E+00  0.2653061E+00  0.7186585E-04  0.0000000E+00 -0.8497318E-01
  0.4285714E+00  0.0000000E+00  0.2653061E+00  0.7421828E-04  0.0000000E+00 -0.8494895E-01
  0.4693878E+00  0.0000000E+00  0.2653061E+00  0.7515991E-04  0.0000000E+00 -0.8492413E-01
  0.5102041E+00  0.0000000E+00  0.2653061E+00  0.7464075E-04  0.0000000E+00 -0.8489919E-01
  0.5510204E+00  0.0000000E+00  0.2653061E+00  0.7264100E-04  0.0000000E+00 -0.8487462E-01
  0.5918368E+00  0.0000000E+00  0.2653061E+00  0.6917583E-04  0.0000000E+00 -0.8485094E-01
  0.6326531E+00  0.0000000E+00  0.2653061E+00  0.6429752E-04  0.0000000E+00 -0.8482861E-01
  0.6734694E+00  0.0000000E+00  0.2653061E+00  0.5809265E-04  0.0000000E+00 -0.8480811E-01
  0.7142857E+00  0.0000000E+00  0.2653061E+00  0.5067392E-04  0.0000000E+00 -0.8478985E-01
  0.7551020E+00  0.0000000E+00  0.2653061E+00  0.4217468E-04  0.0000000E+00 -0.8477421E-01
  0.7959183E+00  0.0000000E+00  0.2653061E+00  0.3274836E-04  0.0000000E+00 -0.8476154E-01
  0.8367347E+00  0.0000000E+00  0.2653061E+00  0.2256600E-04  0.0000000E+00 -0.8475211E-01
  0.8775510E+00  0.0000000E+00  0.2653061E+00  0.1181375E-04  0.0000000E+00 -0.8474616E-01
  0.9183673E+00  0.0000000E+00  0.2653061E+00  0.7013937E-06  0.0000000E+00 -0.8474383E-01
  0.9591837E+00  0.0000000E+00  0.2653061E+00 -0.1056060E-04  0.0000000E+00 -0.8474522E-01
  0.1000000E+01  0.0000000E+00  0.2653061E+00 -0.2173484E-04  0.0000000E+00 -0.8475032E-01
  0.1040816E+01  0.0000000E+00  0.2653061E+00 -0.3262619E-04  0.0000000E+00 -0.8475907E-01
  0.1081633E+01  0.0000000E+00  0.2653061E+00 -0.4303181E-04  0.0000000E+00 -0.8477132E-01
  0.1122449E+01  0.0000000E+00  0.2653061E+00 -0.5279014E-04  0.0000000E+00 -0.8478687E-01
  0.1163265E+01  0.0000000E+00  0.2653061E+00 -0.6173992E-04  0.0000000E+00 -0.8480549E-01
  0.1204082E+01  0.0000000E+00  0.2653061E+00 -0.6973478E-04  0.0000000E+00 -0.8482686E-01
  0.1244898E+01  0.0000000E+00  0.2653061E+00 -0.7665062E-04  0.0000000E+00 -0.8485066E-01
  0.1285714E+01  0.0000000E+00  0.2653061E+00 -0.8238979E-04  0.0000000E+00 -0.8487649E-01
  0.1326531E+01  0.0000000E+00  0.2653061E+00 -0.8687826E-04  0.0000000E+00 -0.8490396E-01