title = "dataset feddes"
variables = "x", "y", "z", "vx", "vy", "vz"
zone t = "velocities, solution time =  3.400E+01 days        " i =   49, j =   49, k =    1,  f=point
  0.2040816E-01  0.0000000E+00  0.2040816E-01  0.3323023E-06  0.0000000E+00 -0.8561124E-01
  0.6122449E-01  0.0000000E+00  0.2040816E-01  0.9917391E-06  0.0000000E+00 -0.8560973E-01
  0.1020408E+00  0.0000000E+00  0.2040816E-01  0.1636547E-05  0.0000000E+00 -0.8560675E-01
  0.1428571E+00  0.0000000E+00  0.2040816E-01  0.2254531E-05  0.0000000E+00 -0.8560233E-01
  0.1836735E+00  0.0000000E+00  0.2040816E-01  0.2834807E-05  0.0000000E+00 -0.8559654E-01
  0.2244898E+00  0.0000000E+00  0.2040816E-01  0.3369888E-05  0.0000000E+00 -0.8558949E-01
  0.2653061E+00  0.0000000E+00  0.2040816E-01  0.3849771E-05  0.0000000E+00 -0.8558129E-01
  0.3061225E+00  0.0000000E+00  0.2040816E-01  0.4264820E-05  0.0000000E+00 -0.8557207E-01
  0.3469388E+00  0.0000000E+00  0.2040816E-01  0.4608614E-05  0.0000000E+00 -0.8556198E-01
  0.3877551E+00  0.0000000E+00  0.2040816E-01  0.4875054E-05  0.0000000E+00 -0.8555121E-01
  0.4285714E+00  0.0000000E+00  0.2040816E-01  0.5058395E-05  0.0000000E+00 -0.8553992E-01
  0.4693878E+00  0.0000000E+00  0.2040816E-01  0.5154292E-05  0.0000000E+00 -0.8552831E-01
  0.5102041E+00  0.0000000E+00  0.2040816E-01  0.5160087E-05  0.0000000E+00 -0.8551659E-01
  0.5510204E+00  0.0000000E+00  0.2040816E-01  0.5074661E-05  0.0000000E+00 -0.8550496E-01
  0.5918368E+00  0.0000000E+00  0.2040816E-01  0.4898370E-05  0.0000000E+00 -0.8549363E-01
  0.6326531E+00  0.0000000E+00  0.2040816E-01  0.4633119E-05  0.0000000E+00 -0.8548280E-01
  0.6734694E+00  0.0000000E+00  0.2040816E-01  0.4282441E-05  0.0000000E+00 -0.8547267E-01
  0.7142857E+00  0.0000000E+00  0.2040816E-01  0.3851509E-05  0.0000000E+00 -0.8546343E-01
  0.7551020E+00  0.0000000E+00  0.2040816E-01  0.3347070E-05  0.0000000E+00 -0.8545525E-01
  0.7959183E+00  0.0000000E+00  0.2040816E-01  0.2777343E-05  0.0000000E+00 -0.8544829E-01
  0.8367347E+00  0.0000000E+00  0.2040816E-01  0.2151880E-05  0.0000000E+00 -0.8544269E-01
  0.8775510E+00  0.0000000E+00  0.2040816E-01  0.1481414E-05  0.0000000E+00 -0.8543856E-01
  0.9183673E+00  0.0000000E+00  0.2040816E-01  0.7776473E-06  0.0000000E+00 -0.8543600E-01
  0.9591837E+00  0.0000000E+00  0.2040816E-01  0.5290516E-07  0.0000000E+00 -0.8543505E-01
  0.1000000E+01  0.0000000E+00  0.2040816E-01 -0.6796772E-06  0.0000000E+00 -0.8543577E-01
  0.1040816E+01  0.0000000E+00  0.2040816E-01 -0.1407013E-05  0.0000000E+00 -0.8543814E-01
  0.1081633E+01  0.0000000E+00  0.2040816E-01 -0.2117419E-05  0.0000000E+00 -0.8544214E-01
  0.1122449E+01  0.0000000E+00  0.2040816E-01 -0.2797256E-05  0.0000000E+00 -0.8544773E-01
  0.1163265E+01  0.0000000E+00  0.2040816E-01 -0.3433582E-05  0.0000000E+00 -0.8545480E-01
  0.1204082E+01  0.0000000E+00  0.2040816E-01 -0.4017867E-05  0.0000000E+00 -0.8546327E-01
  0.1244898E+01  0.0000000E+00  0.2040816E-01 -0.4539236E-05  0.0000000E+00 -0.8547299E-01
  0.1285714E+01  0.0000000E+00  0.2040816E-01 -0.4987504E-05  0.0000000E+00 -0.8548382E-01
  0.1326531E+01  0.0000000E+00  0.2040816E-01 -0.5356779E-05  0.0000000E+00 -0.8549557E-01
  0.1367347E+01  0.0000000E+00  0.2040816E-01 -0.5641854E-05  0.0000000E+00 -0.8550807E-01
  0.1408163E+01  0.0000000E+00  0.2040816E-01 -0.5838190E-05  0.0000000E+00 -0.8552111E-01
  0.1448980E+01  0.0000000E+00  0.2040816E-01 -0.5943031E-05  0.0000000E+00 -0.8553450E-01
  0.1489796E+01  0.0000000E+00  0.2040816E-01 -0.5955545E-05  0.0000000E+00 -0.8554802E-01
  0.1530612E+01  0.0000000E+00  0.2040816E-01 -0.5876492E-05  0.0000000E+00 -0.8556147E-01
  0.1571429E+01  0.0000000E+00  0.2040816E-01 -0.5707997E-05  0.0000000E+00 -0.8557463E-01
  0.1612245E+01  0.0000000E+00  0.2040816E-01 -0.5453461E-05  0.0000000E+00 -0.8558731E-01
  0.1653061E+01  0.0000000E+00  0.2040816E-01 -0.5117474E-05  0.0000000E+00 -0.8559933E-01
  0.1693878E+01  0.0000000E+00  0.2040816E-01 -0.4705744E-05  0.0000000E+00 -0.8561049E-01
  0.1734694E+01  0.0000000E+00  0.2040816E-01 -0.4225021E-05  0.0000000E+00 -0.8562064E-01
  0.1775510E+01  0.0000000E+00  0.2040816E-01 -0.3682917E-05  0.0000000E+00 -0.8562963E-01
  0.1816326E+01  0.0000000E+00  0.2040816E-01 -0.3087701E-05  0.0000000E+00 -0.8563732E-01
  0.1857143E+01  0.0000000E+00  0.2040816E-01 -0.2448197E-05  0.0000000E+00 -0.8564361E-01
  0.1897959E+01  0.0000000E+00  0.2040816E-01 -0.1773757E-05  0.0000000E+00 -0.8564841E-01
  0.1938776E+01  0.0000000E+00  0.2040816E-01 -0.1074171E-05  0.0000000E+00 -0.8565165E-01
  0.1989796E+01  0.0000000E+00  0.2040816E-01 -0.3594539E-06  0.0000000E+00 -0.8565328E-01
  0.2040816E-01  0.0000000E+00  0.6122449E-01  0.9114063E-06  0.0000000E+00 -0.8561256E-01
  0.6122449E-01  0.0000000E+00  0.6122449E-01  0.2719408E-05  0.0000000E+00 -0.8561103E-01
  0.1020408E+00  0.0000000E+00  0.6122449E-01  0.4486121E-05  0.0000000E+00 -0.8560800E-01
  0.1428571E+00  0.0000000E+00  0.6122449E-01  0.6180523E-05  0.0000000E+00 -0.8560352E-01
  0.1836735E+00  0.0000000E+00  0.6122449E-01  0.7772335E-05  0.0000000E+00 -0.8559765E-01
  0.2244898E+00  0.0000000E+00  0.6122449E-01  0.9239160E-05  0.0000000E+00 -0.8559049E-01
  0.2653061E+00  0.0000000E+00  0.6122449E-01  0.1055480E-04  0.0000000E+00 -0.8558217E-01
  0.3061225E+00  0.0000000E+00  0.6122449E-01  0.1169361E-04  0.0000000E+00 -0.8557282E-01
  0.3469388E+00  0.0000000E+00  0.6122449E-01  0.1263718E-04  0.0000000E+00 -0.8556258E-01
  0.3877551E+00  0.0000000E+00  0.6122449E-01  0.1336851E-04  0.0000000E+00 -0.8555165E-01
  0.4285714E+00  0.0000000E+00  0.6122449E-01  0.1387204E-04  0.0000000E+00 -0.8554019E-01
  0.4693878E+00  0.0000000E+00  0.6122449E-01  0.1413596E-04  0.0000000E+00 -0.8552840E-01
  0.5102041E+00  0.0000000E+00  0.6122449E-01  0.1415291E-04  0.0000000E+00 -0.8551650E-01
  0.5510204E+00  0.0000000E+00  0.6122449E-01  0.1391970E-04  0.0000000E+00 -0.8550469E-01
  0.5918368E+00  0.0000000E+00  0.6122449E-01  0.1343724E-04  0.0000000E+00 -0.8549318E-01
  0.6326531E+00  0.0000000E+00  0.6122449E-01  0.1271072E-04  0.0000000E+00 -0.8548218E-01
  0.6734694E+00  0.0000000E+00  0.6122449E-01  0.1174979E-04  0.0000000E+00 -0.8547188E-01
  0.7142857E+00  0.0000000E+00  0.6122449E-01  0.1056862E-04  0.0000000E+00 -0.8546248E-01
  0.7551020E+00  0.0000000E+00  0.6122449E-01  0.9185688E-05  0.0000000E+00 -0.8545417E-01
  0.7959183E+00  0.0000000E+00  0.6122449E-01  0.7623507E-05  0.0000000E+00 -0.8544709E-01
  0.8367347E+00  0.0000000E+00  0.6122449E-01  0.5908297E-05  0.0000000E+00 -0.8544139E-01
  0.8775510E+00  0.0000000E+00  0.6122449E-01  0.4069513E-05  0.0000000E+00 -0.8543718E-01
  0.9183673E+00  0.0000000E+00  0.6122449E-01  0.2139271E-05  0.0000000E+00 -0.8543456E-01
  0.9591837E+00  0.0000000E+00  0.6122449E-01  0.1517288E-06  0.0000000E+00 -0.8543359E-01
  0.1000000E+01  0.0000000E+00  0.6122449E-01 -0.1858060E-05  0.0000000E+00 -0.8543430E-01
  0.1040816E+01  0.0000000E+00  0.6122449E-01 -0.3853346E-05  0.0000000E+00 -0.8543669E-01
  0.1081633E+01  0.0000000E+00  0.6122449E-01 -0.5800934E-05  0.0000000E+00 -0.8544074E-01
  0.1122449E+01  0.0000000E+00  0.6122449E-01 -0.7665663E-05  0.0000000E+00 -0.8544640E-01
  0.1163265E+01  0.0000000E+00  0.6122449E-01 -0.9411660E-05  0.0000000E+00 -0.8545357E-01
  0.1204082E+01  0.0000000E+00  0.6122449E-01 -0.1101333E-04  0.0000000E+00 -0.8546216E-01
  0.1244898E+01  0.0000000E+00  0.6122449E-01 -0.1244224E-04  0.0000000E+00 -0.8547201E-01
  0.1285714E+01  0.0000000E+00  0.6122449E-01 -0.1367140E-04  0.0000000E+00 -0.8548299E-01
  0.1326531E+01  0.0000000E+00  0.6122449E-01 -0.1468374E-04  0.0000000E+00 -0.8549491E-01
  0.1367347E+01  0.0000000E+00  0.6122449E-01 -0.1546471E-04  0.0000000E+00 -0.8550758E-01
  0.1408163E+01  0.0000000E+00  0.6122449E-01 -0.1600217E-04  0.0000000E+00 -0.8552080E-01
  0.1448980E+01  0.0000000E+00  0.6122449E-01 -0.1628883E-04  0.0000000E+00 -0.8553437E-01
  0.1489796E+01  0.0000000E+00  0.6122449E-01 -0.1632244E-04  0.0000000E+00 -0.8554808E-01
  0.1530612E+01  0.0000000E+00  0.6122449E-01 -0.1610506E-04  0.0000000E+00 -0.8556170E-01
  0.1571429E+01  0.0000000E+00  0.6122449E-01 -0.1564250E-04  0.0000000E+00 -0.8557504E-01
  0.1612245E+01  0.0000000E+00  0.6122449E-01 -0.1494418E-04  0.0000000E+00 -0.8558789E-01
  0.1653061E+01  0.0000000E+00  0.6122449E-01 -0.1402280E-04  0.0000000E+00 -0.8560006E-01
  0.1693878E+01  0.0000000E+00  0.6122449E-01 -0.1289404E-04  0.0000000E+00 -0.8561137E-01
  0.1734694E+01  0.0000000E+00  0.6122449E-01 -0.1157636E-04  0.0000000E+00 -0.8562165E-01
  0.1775510E+01  0.0000000E+00  0.6122449E-01 -0.1009061E-04  0.0000000E+00 -0.8563075E-01
  0.1816326E+01  0.0000000E+00  0.6122449E-01 -0.8459502E-05  0.0000000E+00 -0.8563855E-01
  0.1857143E+01  0.0000000E+00  0.6122449E-01 -0.6707258E-05  0.0000000E+00 -0.8564492E-01
  0.1897959E+01  0.0000000E+00  0.6122449E-01 -0.4859430E-05  0.0000000E+00 -0.8564978E-01
  0.1938776E+01  0.0000000E+00  0.6122449E-01 -0.2942756E-05  0.0000000E+00 -0.8565305E-01
  0.1989796E+01  0.0000000E+00  0.6122449E-01 -0.9849434E-06  0.0000000E+00 -0.8565470E-01
  0.2040816E-01  0.0000000E+00  0.1020408E+00  0.1369186E-05  0.0000000E+00 -0.8561484E-01
  0.6122449E-01  0.0000000E+00  0.1020408E+00  0.4085861E-05  0.0000000E+00 -0.8561328E-01
  0.1020408E+00  0.0000000E+00  0.1020408E+00  0.6738888E-05  0.0000000E+00 -0.8561017E-01
  0.1428571E+00  0.0000000E+00  0.1020408E+00  0.9284458E-05  0.0000000E+00 -0.8560558E-01
  0.1836735E+00  0.0000000E+00  0.1020408E+00  0.1167743E-04  0.0000000E+00 -0.8559957E-01
  0.2244898E+00  0.0000000E+00  0.1020408E+00  0.1388157E-04  0.0000000E+00 -0.8559224E-01
  0.2653061E+00  0.0000000E+00  0.1020408E+00  0.1585895E-04  0.0000000E+00 -0.8558371E-01
  0.3061225E+00  0.0000000E+00  0.1020408E+00  0.1757223E-04  0.0000000E+00 -0.8557412E-01
  0.3469388E+00  0.0000000E+00  0.1020408E+00  0.1899260E-04  0.0000000E+00 -0.8556362E-01
  0.3877551E+00  0.0000000E+00  0.1020408E+00  0.2009401E-04  0.0000000E+00 -0.8555240E-01
  0.4285714E+00  0.0000000E+00  0.1020408E+00  0.2085335E-04  0.0000000E+00 -0.8554065E-01
  0.4693878E+00  0.0000000E+00  0.1020408E+00  0.2125297E-04  0.0000000E+00 -0.8552856E-01
  0.5102041E+00  0.0000000E+00  0.1020408E+00  0.2128162E-04  0.0000000E+00 -0.8551634E-01
  0.5510204E+00  0.0000000E+00  0.1020408E+00  0.2093425E-04  0.0000000E+00 -0.8550421E-01
  0.5918368E+00  0.0000000E+00  0.1020408E+00  0.2021201E-04  0.0000000E+00 -0.8549239E-01
  0.6326531E+00  0.0000000E+00  0.1020408E+00  0.1912259E-04  0.0000000E+00 -0.8548108E-01
  0.6734694E+00  0.0000000E+00  0.1020408E+00  0.1768039E-04  0.0000000E+00 -0.8547049E-01
  0.7142857E+00  0.0000000E+00  0.1020408E+00  0.1590663E-04  0.0000000E+00 -0.8546083E-01
  0.7551020E+00  0.0000000E+00  0.1020408E+00  0.1382899E-04  0.0000000E+00 -0.8545227E-01
  0.7959183E+00  0.0000000E+00  0.1020408E+00  0.1148130E-04  0.0000000E+00 -0.8544498E-01
  0.8367347E+00  0.0000000E+00  0.1020408E+00  0.8903019E-05  0.0000000E+00 -0.8543910E-01
  0.8775510E+00  0.0000000E+00  0.1020408E+00  0.6138526E-05  0.0000000E+00 -0.8543476E-01
  0.9183673E+00  0.0000000E+00  0.1020408E+00  0.3235922E-05  0.0000000E+00 -0.8543204E-01
  0.9591837E+00  0.0000000E+00  0.1020408E+00  0.2474266E-06  0.0000000E+00 -0.8543102E-01
  0.1000000E+01  0.0000000E+00  0.1020408E+00 -0.2775023E-05  0.0000000E+00 -0.8543172E-01
  0.1040816E+01  0.0000000E+00  0.1020408E+00 -0.5776271E-05  0.0000000E+00 -0.8543416E-01
  0.1081633E+01  0.0000000E+00  0.1020408E+00 -0.8704070E-05  0.0000000E+00 -0.8543829E-01
  0.1122449E+01  0.0000000E+00  0.1020408E+00 -0.1150770E-04  0.0000000E+00 -0.8544408E-01
  0.1163265E+01  0.0000000E+00  0.1020408E+00 -0.1413368E-04  0.0000000E+00 -0.8545142E-01
  0.1204082E+01  0.0000000E+00  0.1020408E+00 -0.1654040E-04  0.0000000E+00 -0.8546021E-01
  0.1244898E+01  0.0000000E+00  0.1020408E+00 -0.1868667E-04  0.0000000E+00 -0.8547030E-01
  0.1285714E+01  0.0000000E+00  0.1020408E+00 -0.2053340E-04  0.0000000E+00 -0.8548154E-01
  0.1326531E+01  0.0000000E+00  0.1020408E+00 -0.2205370E-04  0.0000000E+00 -0.8549374E-01
  0.1367347E+01  0.0000000E+00  0.1020408E+00 -0.2322532E-04  0.0000000E+00 -0.8550672E-01
  0.1408163E+01  0.0000000E+00  0.1020408E+00 -0.2403056E-04  0.0000000E+00 -0.8552026E-01
  0.1448980E+01  0.0000000E+00  0.1020408E+00 -0.2445890E-04  0.0000000E+00 -0.8553415E-01
  0.1489796E+01  0.0000000E+00  0.1020408E+00 -0.2450716E-04  0.0000000E+00 -0.8554817E-01
  0.1530612E+01  0.0000000E+00  0.1020408E+00 -0.2417850E-04  0.0000000E+00 -0.8556211E-01
  0.1571429E+01  0.0000000E+00  0.1020408E+00 -0.2348172E-04  0.0000000E+00 -0.8557576E-01
  0.1612245E+01  0.0000000E+00  0.1020408E+00 -0.2243110E-04  0.0000000E+00 -0.8558890E-01
  0.1653061E+01  0.0000000E+00  0.1020408E+00 -0.2104602E-04  0.0000000E+00 -0.8560134E-01
  0.1693878E+01  0.0000000E+00  0.1020408E+00 -0.1935022E-04  0.0000000E+00 -0.8561290E-01
  0.1734694E+01  0.0000000E+00  0.1020408E+00 -0.1737138E-04  0.0000000E+00 -0.8562341E-01
  0.1775510E+01  0.0000000E+00  0.1020408E+00 -0.1514070E-04  0.0000000E+00 -0.8563271E-01
  0.1816326E+01  0.0000000E+00  0.1020408E+00 -0.1269235E-04  0.0000000E+00 -0.8564067E-01
  0.1857143E+01  0.0000000E+00  0.1020408E+00 -0.1006277E-04  0.0000000E+00 -0.8564718E-01
  0.1897959E+01  0.0000000E+00  0.1020408E+00 -0.7290287E-05  0.0000000E+00 -0.8565214E-01
  0.1938776E+01  0.0000000E+00  0.1020408E+00 -0.4414709E-05  0.0000000E+00 -0.8565549E-01
  0.1989796E+01  0.0000000E+00  0.1020408E+00 -0.1477919E-05  0.0000000E+00 -0.8565718E-01
  0.2040816E-01  0.0000000E+00  0.1428571E+00  0.1770240E-05  0.0000000E+00 -0.8561795E-01
  0.6122449E-01  0.0000000E+00  0.1428571E+00  0.5283950E-05  0.0000000E+00 -0.8561634E-01
  0.1020408E+00  0.0000000E+00  0.1428571E+00  0.8714855E-05  0.0000000E+00 -0.8561313E-01
  0.1428571E+00  0.0000000E+00  0.1428571E+00  0.1200704E-04  0.0000000E+00 -0.8560839E-01
  0.1836735E+00  0.0000000E+00  0.1428571E+00  0.1510347E-04  0.0000000E+00 -0.8560218E-01
  0.2244898E+00  0.0000000E+00  0.1428571E+00  0.1795592E-04  0.0000000E+00 -0.8559461E-01
  0.2653061E+00  0.0000000E+00  0.1428571E+00  0.2051585E-04  0.0000000E+00 -0.8558580E-01
  0.3061225E+00  0.0000000E+00  0.1428571E+00  0.2273577E-04  0.0000000E+00 -0.8557588E-01
  0.3469388E+00  0.0000000E+00  0.1428571E+00  0.2457765E-04  0.0000000E+00 -0.8556504E-01
  0.3877551E+00  0.0000000E+00  0.1428571E+00  0.2600740E-04  0.0000000E+00 -0.8555344E-01
  0.4285714E+00  0.0000000E+00  0.1428571E+00  0.2699514E-04  0.0000000E+00 -0.8554128E-01
  0.4693878E+00  0.0000000E+00  0.1428571E+00  0.2751796E-04  0.0000000E+00 -0.8552876E-01
  0.5102041E+00  0.0000000E+00  0.1428571E+00  0.2756099E-04  0.0000000E+00 -0.8551612E-01
  0.5510204E+00  0.0000000E+00  0.1428571E+00  0.2711728E-04  0.0000000E+00 -0.8550355E-01
  0.5918368E+00  0.0000000E+00  0.1428571E+00  0.2618803E-04  0.0000000E+00 -0.8549130E-01
  0.6326531E+00  0.0000000E+00  0.1428571E+00  0.2478289E-04  0.0000000E+00 -0.8547957E-01
  0.6734694E+00  0.0000000E+00  0.1428571E+00  0.2292033E-04  0.0000000E+00 -0.8546859E-01
  0.7142857E+00  0.0000000E+00  0.1428571E+00  0.2062758E-04  0.0000000E+00 -0.8545856E-01
  0.7551020E+00  0.0000000E+00  0.1428571E+00  0.1794038E-04  0.0000000E+00 -0.8544967E-01
  0.7959183E+00  0.0000000E+00  0.1428571E+00  0.1490246E-04  0.0000000E+00 -0.8544209E-01
  0.8367347E+00  0.0000000E+00  0.1428571E+00  0.1156496E-04  0.0000000E+00 -0.8543597E-01
  0.8775510E+00  0.0000000E+00  0.1428571E+00  0.7985544E-05  0.0000000E+00 -0.8543144E-01
  0.9183673E+00  0.0000000E+00  0.1428571E+00  0.4226434E-05  0.0000000E+00 -0.8542859E-01
  0.9591837E+00  0.0000000E+00  0.1428571E+00  0.3555751E-06  0.0000000E+00 -0.8542750E-01
  0.1000000E+01  0.0000000E+00  0.1428571E+00 -0.3558948E-05  0.0000000E+00 -0.8542820E-01
  0.1040816E+01  0.0000000E+00  0.1428571E+00 -0.7446878E-05  0.0000000E+00 -0.8543068E-01
  0.1081633E+01  0.0000000E+00  0.1428571E+00 -0.1123883E-04  0.0000000E+00 -0.8543494E-01
  0.1122449E+01  0.0000000E+00  0.1428571E+00 -0.1486888E-04  0.0000000E+00 -0.8544090E-01
  0.1163265E+01  0.0000000E+00  0.1428571E+00 -0.1826906E-04  0.0000000E+00 -0.8544847E-01
  0.1204082E+01  0.0000000E+00  0.1428571E+00 -0.2138371E-04  0.0000000E+00 -0.8545753E-01
  0.1244898E+01  0.0000000E+00  0.1428571E+00 -0.2415989E-04  0.0000000E+00 -0.8546795E-01
  0.1285714E+01  0.0000000E+00  0.1428571E+00 -0.2654801E-04  0.0000000E+00 -0.8547955E-01
  0.1326531E+01  0.0000000E+00  0.1428571E+00 -0.2851265E-04  0.0000000E+00 -0.8549215E-01
  0.1367347E+01  0.0000000E+00  0.1428571E+00 -0.3002495E-04  0.0000000E+00 -0.8550553E-01
  0.1408163E+01  0.0000000E+00  0.1428571E+00 -0.3106251E-04  0.0000000E+00 -0.8551950E-01
  0.1448980E+01  0.0000000E+00  0.1428571E+00 -0.3161216E-04  0.0000000E+00 -0.8553383E-01
  0.1489796E+01  0.0000000E+00  0.1428571E+00 -0.3167016E-04  0.0000000E+00 -0.8554829E-01
  0.1530612E+01  0.0000000E+00  0.1428571E+00 -0.3124097E-04  0.0000000E+00 -0.8556266E-01
  0.1571429E+01  0.0000000E+00  0.1428571E+00 -0.3033623E-04  0.0000000E+00 -0.8557673E-01
  0.1612245E+01  0.0000000E+00  0.1428571E+00 -0.2897461E-04  0.0000000E+00 -0.8559027E-01
  0.1653061E+01  0.0000000E+00  0.1428571E+00 -0.2718146E-04  0.0000000E+00 -0.8560308E-01
  0.1693878E+01  0.0000000E+00  0.1428571E+00 -0.2498790E-04  0.0000000E+00 -0.8561499E-01
  0.1734694E+01  0.0000000E+00  0.1428571E+00 -0.2242985E-04  0.0000000E+00 -0.8562580E-01
  0.1775510E+01  0.0000000E+00  0.1428571E+00 -0.1954751E-04  0.0000000E+00 -0.8563537E-01
  0.1816326E+01  0.0000000E+00  0.1428571E+00 -0.1638492E-04  0.0000000E+00 -0.8564357E-01
  0.1857143E+01  0.0000000E+00  0.1428571E+00 -0.1298921E-04  0.0000000E+00 -0.8565026E-01
  0.1897959E+01  0.0000000E+00  0.1428571E+00 -0.9409887E-05  0.0000000E+00 -0.8565536E-01
  0.1938776E+01  0.0000000E+00  0.1428571E+00 -0.5698116E-05  0.0000000E+00 -0.8565881E-01
  0.1989796E+01  0.0000000E+00  0.1428571E+00 -0.1907819E-05  0.0000000E+00 -0.8566054E-01
  0.2040816E-01  0.0000000E+00  0.1836735E+00  0.2137291E-05  0.0000000E+00 -0.8562180E-01
  0.6122449E-01  0.0000000E+00  0.1836735E+00  0.6379736E-05  0.0000000E+00 -0.8562012E-01
  0.1020408E+00  0.0000000E+00  0.1836735E+00  0.1052253E-04  0.0000000E+00 -0.8561680E-01
  0.1428571E+00  0.0000000E+00  0.1836735E+00  0.1449837E-04  0.0000000E+00 -0.8561187E-01
  0.1836735E+00  0.0000000E+00  0.1836735E+00  0.1823954E-04  0.0000000E+00 -0.8560542E-01
  0.2244898E+00  0.0000000E+00  0.1836735E+00  0.2168716E-04  0.0000000E+00 -0.8559755E-01
  0.2653061E+00  0.0000000E+00  0.1836735E+00  0.2478286E-04  0.0000000E+00 -0.8558838E-01
  0.3061225E+00  0.0000000E+00  0.1836735E+00  0.2746984E-04  0.0000000E+00 -0.8557808E-01
  0.3469388E+00  0.0000000E+00  0.1836735E+00  0.2970159E-04  0.0000000E+00 -0.8556679E-01
  0.3877551E+00  0.0000000E+00  0.1836735E+00  0.3143650E-04  0.0000000E+00 -0.8555472E-01
  0.4285714E+00  0.0000000E+00  0.1836735E+00  0.3263835E-04  0.0000000E+00 -0.8554205E-01
  0.4693878E+00  0.0000000E+00  0.1836735E+00  0.3327920E-04  0.0000000E+00 -0.8552902E-01
  0.5102041E+00  0.0000000E+00  0.1836735E+00  0.3334054E-04  0.0000000E+00 -0.8551583E-01
  0.5510204E+00  0.0000000E+00  0.1836735E+00  0.3281347E-04  0.0000000E+00 -0.8550273E-01
  0.5918368E+00  0.0000000E+00  0.1836735E+00  0.3169891E-04  0.0000000E+00 -0.8548994E-01
  0.6326531E+00  0.0000000E+00  0.1836735E+00  0.3000813E-04  0.0000000E+00 -0.8547770E-01
  0.6734694E+00  0.0000000E+00  0.1836735E+00  0.2776306E-04  0.0000000E+00 -0.8546622E-01
  0.7142857E+00  0.0000000E+00  0.1836735E+00  0.2499633E-04  0.0000000E+00 -0.8545573E-01
  0.7551020E+00  0.0000000E+00  0.1836735E+00  0.2175094E-04  0.0000000E+00 -0.8544643E-01
  0.7959183E+00  0.0000000E+00  0.1836735E+00  0.1807973E-04  0.0000000E+00 -0.8543849E-01
  0.8367347E+00  0.0000000E+00  0.1836735E+00  0.1404459E-04  0.0000000E+00 -0.8543207E-01
  0.8775510E+00  0.0000000E+00  0.1836735E+00  0.9715335E-05  0.0000000E+00 -0.8542730E-01
  0.9183673E+00  0.0000000E+00  0.1836735E+00  0.5167885E-05  0.0000000E+00 -0.8542429E-01
  0.9591837E+00  0.0000000E+00  0.1836735E+00  0.4840145E-06  0.0000000E+00 -0.8542311E-01
  0.1000000E+01  0.0000000E+00  0.1836735E+00 -0.4252647E-05  0.0000000E+00 -0.8542380E-01
  0.1040816E+01  0.0000000E+00  0.1836735E+00 -0.8957241E-05  0.0000000E+00 -0.8542636E-01
  0.1081633E+01  0.0000000E+00  0.1836735E+00 -0.1354514E-04  0.0000000E+00 -0.8543076E-01
  0.1122449E+01  0.0000000E+00  0.1836735E+00 -0.1793576E-04  0.0000000E+00 -0.8543693E-01
  0.1163265E+01  0.0000000E+00  0.1836735E+00 -0.2204760E-04  0.0000000E+00 -0.8544479E-01
  0.1204082E+01  0.0000000E+00  0.1836735E+00 -0.2581231E-04  0.0000000E+00 -0.8545421E-01
  0.1244898E+01  0.0000000E+00  0.1836735E+00 -0.2916591E-04  0.0000000E+00 -0.8546503E-01
  0.1285714E+01  0.0000000E+00  0.1836735E+00 -0.3204913E-04  0.0000000E+00 -0.8547708E-01
  0.1326531E+01  0.0000000E+00  0.1836735E+00 -0.3441881E-04  0.0000000E+00 -0.8549016E-01
  0.1367347E+01  0.0000000E+00  0.1836735E+00 -0.3624030E-04  0.0000000E+00 -0.8550406E-01
  0.1408163E+01  0.0000000E+00  0.1836735E+00 -0.3748721E-04  0.0000000E+00 -0.8551856E-01
  0.1448980E+01  0.0000000E+00  0.1836735E+00 -0.3814414E-04  0.0000000E+00 -0.8553343E-01
  0.1489796E+01  0.0000000E+00  0.1836735E+00 -0.3820702E-04  0.0000000E+00 -0.8554844E-01
  0.1530612E+01  0.0000000E+00  0.1836735E+00 -0.3768189E-04  0.0000000E+00 -0.8556335E-01
  0.1571429E+01  0.0000000E+00  0.1836735E+00 -0.3658348E-04  0.0000000E+00 -0.8557793E-01
  0.1612245E+01  0.0000000E+00  0.1836735E+00 -0.3493469E-04  0.0000000E+00 -0.8559196E-01
  0.1653061E+01  0.0000000E+00  0.1836735E+00 -0.3276639E-04  0.0000000E+00 -0.8560524E-01
  0.1693878E+01  0.0000000E+00  0.1836735E+00 -0.3011660E-04  0.0000000E+00 -0.8561756E-01
  0.1734694E+01  0.0000000E+00  0.1836735E+00 -0.2702909E-04  0.0000000E+00 -0.8562876E-01
  0.1775510E+01  0.0000000E+00  0.1836735E+00 -0.2355240E-04  0.0000000E+00 -0.8563866E-01
  0.1816326E+01  0.0000000E+00  0.1836735E+00 -0.1973944E-04  0.0000000E+00 -0.8564714E-01
  0.1857143E+01  0.0000000E+00  0.1836735E+00 -0.1564687E-04  0.0000000E+00 -0.8565407E-01
  0.1897959E+01  0.0000000E+00  0.1836735E+00 -0.1133419E-04  0.0000000E+00 -0.8565934E-01
  0.1938776E+01  0.0000000E+00  0.1836735E+00 -0.6863058E-05  0.0000000E+00 -0.8566290E-01
  0.1989796E+01  0.0000000E+00  0.1836735E+00 -0.2297989E-05  0.0000000E+00 -0.8566470E-01
  0.2040816E-01  0.0000000E+00  0.2244898E+00  0.2483209E-05  0.0000000E+00 -0.8562634E-01
  0.6122449E-01  0.0000000E+00  0.2244898E+00  0.7412318E-05  0.0000000E+00 -0.8562459E-01
  0.1020408E+00  0.0000000E+00  0.2244898E+00  0.1222624E-04  0.0000000E+00 -0.8562111E-01
  0.1428571E+00  0.0000000E+00  0.2244898E+00  0.1684724E-04  0.0000000E+00 -0.8561597E-01
  0.1836735E+00  0.0000000E+00  0.2244898E+00  0.2119760E-04  0.0000000E+00 -0.8560923E-01
  0.2244898E+00  0.0000000E+00  0.2244898E+00  0.2520862E-04  0.0000000E+00 -0.8560101E-01
  0.2653061E+00  0.0000000E+00  0.2244898E+00  0.2881264E-04  0.0000000E+00 -0.8559144E-01
  0.3061225E+00  0.0000000E+00  0.2244898E+00  0.3194409E-04  0.0000000E+00 -0.8558066E-01
  0.3469388E+00  0.0000000E+00  0.2244898E+00  0.3454835E-04  0.0000000E+00 -0.8556886E-01
  0.3877551E+00  0.0000000E+00  0.2244898E+00  0.3657661E-04  0.0000000E+00 -0.8555623E-01
  0.4285714E+00  0.0000000E+00  0.2244898E+00  0.3798643E-04  0.0000000E+00 -0.8554297E-01
  0.4693878E+00  0.0000000E+00  0.2244898E+00  0.3874481E-04  0.0000000E+00 -0.8552932E-01
  0.5102041E+00  0.0000000E+00  0.2244898E+00  0.3882955E-04  0.0000000E+00 -0.8551550E-01
  0.5510204E+00  0.0000000E+00  0.2244898E+00  0.3822953E-04  0.0000000E+00 -0.8550176E-01
  0.5918368E+00  0.0000000E+00  0.2244898E+00  0.3694512E-04  0.0000000E+00 -0.8548834E-01
  0.6326531E+00  0.0000000E+00  0.2244898E+00  0.3498880E-04  0.0000000E+00 -0.8547548E-01
  0.6734694E+00  0.0000000E+00  0.2244898E+00  0.3238554E-04  0.0000000E+00 -0.8546342E-01
  0.7142857E+00  0.0000000E+00  0.2244898E+00  0.2917287E-04  0.0000000E+00 -0.8545239E-01
  0.7551020E+00  0.0000000E+00  0.2244898E+00  0.2540052E-04  0.0000000E+00 -0.8544259E-01
  0.7959183E+00  0.0000000E+00  0.2244898E+00  0.2112996E-04  0.0000000E+00 -0.8543422E-01
  0.8367347E+00  0.0000000E+00  0.2244898E+00  0.1643339E-04  0.0000000E+00 -0.8542744E-01
  0.8775510E+00  0.0000000E+00  0.2244898E+00  0.1139199E-04  0.0000000E+00 -0.8542240E-01
  0.9183673E+00  0.0000000E+00  0.2244898E+00  0.6095158E-05  0.0000000E+00 -0.8541920E-01
  0.9591837E+00  0.0000000E+00  0.2244898E+00  0.6380808E-06  0.0000000E+00 -0.8541791E-01
  0.1000000E+01  0.0000000E+00  0.2244898E+00 -0.4880943E-05  0.0000000E+00 -0.8541859E-01
  0.1040816E+01  0.0000000E+00  0.2244898E+00 -0.1036238E-04  0.0000000E+00 -0.8542123E-01
  0.1081633E+01  0.0000000E+00  0.2244898E+00 -0.1570707E-04  0.0000000E+00 -0.8542580E-01
  0.1122449E+01  0.0000000E+00  0.2244898E+00 -0.2082029E-04  0.0000000E+00 -0.8543223E-01
  0.1163265E+01  0.0000000E+00  0.2244898E+00 -0.2560734E-04  0.0000000E+00 -0.8544043E-01
  0.1204082E+01  0.0000000E+00  0.2244898E+00 -0.2998775E-04  0.0000000E+00 -0.8545026E-01
  0.1244898E+01  0.0000000E+00  0.2244898E+00 -0.3388706E-04  0.0000000E+00 -0.8546156E-01
  0.1285714E+01  0.0000000E+00  0.2244898E+00 -0.3723683E-04  0.0000000E+00 -0.8547414E-01
  0.1326531E+01  0.0000000E+00  0.2244898E+00 -0.3998665E-04  0.0000000E+00 -0.8548780E-01
  0.1367347E+01  0.0000000E+00  0.2244898E+00 -0.4209659E-04  0.0000000E+00 -0.8550232E-01
  0.1408163E+01  0.0000000E+00  0.2244898E+00 -0.4353688E-04  0.0000000E+00 -0.8551745E-01
  0.1448980E+01  0.0000000E+00  0.2244898E+00 -0.4429044E-04  0.0000000E+00 -0.8553297E-01
  0.1489796E+01  0.0000000E+00  0.2244898E+00 -0.4435310E-04  0.0000000E+00 -0.8554861E-01
  0.1530612E+01  0.0000000E+00  0.2244898E+00 -0.4373263E-04  0.0000000E+00 -0.8556415E-01
  0.1571429E+01  0.0000000E+00  0.2244898E+00 -0.4244722E-04  0.0000000E+00 -0.8557934E-01
  0.1612245E+01  0.0000000E+00  0.2244898E+00 -0.4052431E-04  0.0000000E+00 -0.8559395E-01
  0.1653061E+01  0.0000000E+00  0.2244898E+00 -0.3800012E-04  0.0000000E+00 -0.8560777E-01
  0.1693878E+01  0.0000000E+00  0.2244898E+00 -0.3491914E-04  0.0000000E+00 -0.8562060E-01
  0.1734694E+01  0.0000000E+00  0.2244898E+00 -0.3133270E-04  0.0000000E+00 -0.8563224E-01
  0.1775510E+01  0.0000000E+00  0.2244898E+00 -0.2729746E-04  0.0000000E+00 -0.8564254E-01
  0.1816326E+01  0.0000000E+00  0.2244898E+00 -0.2287472E-04  0.0000000E+00 -0.8565135E-01
  0.1857143E+01  0.0000000E+00  0.2244898E+00 -0.1812992E-04  0.0000000E+00 -0.8565854E-01
  0.1897959E+01  0.0000000E+00  0.2244898E+00 -0.1313148E-04  0.0000000E+00 -0.8566402E-01
  0.1938776E+01  0.0000000E+00  0.2244898E+00 -0.7950796E-05  0.0000000E+00 -0.8566772E-01
  0.1989796E+01  0.0000000E+00  0.2244898E+00 -0.2662101E-05  0.0000000E+00 -0.8566958E-01
  0.2040816E-01  0.0000000E+00  0.2653061E+00  0.2816782E-05  0.0000000E+00 -0.8563153E-01
  0.6122449E-01  0.0000000E+00  0.2653061E+00  0.8408250E-05  0.0000000E+00 -0.8562969E-01
  0.1020408E+00  0.0000000E+00  0.2653061E+00  0.1386987E-04  0.0000000E+00 -0.8562605E-01
  0.1428571E+00  0.0000000E+00  0.2653061E+00  0.1911421E-04  0.0000000E+00 -0.8562066E-01
  0.1836735E+00  0.0000000E+00  0.2653061E+00  0.2405408E-04  0.0000000E+00 -0.8561360E-01
  0.2244898E+00  0.0000000E+00  0.2653061E+00  0.2861145E-04  0.0000000E+00 -0.8560498E-01
  0.2653061E+00  0.0000000E+00  0.2653061E+00  0.3270975E-04  0.0000000E+00 -0.8559494E-01
  0.3061225E+00  0.0000000E+00  0.2653061E+00  0.3627491E-04  0.0000000E+00 -0.8558363E-01
  0.3469388E+00  0.0000000E+00  0.2653061E+00  0.3924442E-04  0.0000000E+00 -0.8557124E-01
  0.3877551E+00  0.0000000E+00  0.2653061E+00  0.4156231E-04  0.0000000E+00 -0.8555796E-01
  0.4285714E+00  0.0000000E+00  0.2653061E+00  0.4317986E-04  0.0000000E+00 -0.8554403E-01
  0.4693878E+00  0.0000000E+00  0.2653061E+00  0.4405887E-04  0.0000000E+00 -0.8552967E-01
  0.5102041E+00  0.0000000E+00  0.2653061E+00  0.4417321E-04  0.0000000E+00 -0.8551512E-01
  0.5510204E+00  0.0000000E+00  0.2653061E+00  0.4350925E-04  0.0000000E+00 -0.8550065E-01
  0.5918368E+00  0.0000000E+00  0.2653061E+00  0.4206643E-04  0.0000000E+00 -0.8548650E-01
  0.6326531E+00  0.0000000E+00  0.2653061E+00  0.3985805E-04  0.0000000E+00 -0.8547293E-01
  0.6734694E+00  0.0000000E+00  0.2653061E+00  0.3691175E-04  0.0000000E+00 -0.8546020E-01
  0.7142857E+00  0.0000000E+00  0.2653061E+00  0.3326956E-04  0.0000000E+00 -0.8544854E-01
  0.7551020E+00  0.0000000E+00  0.2653061E+00  0.2898760E-04  0.0000000E+00 -0.8543818E-01
  0.7959183E+00  0.0000000E+00  0.2653061E+00  0.2413562E-04  0.0000000E+00 -0.8542931E-01
  0.8367347E+00  0.0000000E+00  0.2653061E+00  0.1879600E-04  0.0000000E+00 -0.8542212E-01
  0.8775510E+00  0.0000000E+00  0.2653061E+00  0.1306107E-04  0.0000000E+00 -0.8541675E-01
  0.9183673E+00  0.0000000E+00  0.2653061E+00  0.7033411E-05  0.0000000E+00 -0.8541333E-01
  0.9591837E+00  0.0000000E+00  0.2653061E+00  0.8218397E-06  0.0000000E+00 -0.8541193E-01
  0.1000000E+01  0.0000000E+00  0.2653061E+00 -0.5460947E-05  0.0000000E+00 -0.8541259E-01
  0.1040816E+01  0.0000000E+00  0.2653061E+00 -0.1170063E-04  0.0000000E+00 -0.8541532E-01
  0.1081633E+01  0.0000000E+00  0.2653061E+00 -0.1778351E-04  0.0000000E+00 -0.8542009E-01
  0.1122449E+01  0.0000000E+00  0.2653061E+00 -0.2360090E-04  0.0000000E+00 -0.8542683E-01
  0.1163265E+01  0.0000000E+00  0.2653061E+00 -0.2904489E-04  0.0000000E+00 -0.8543542E-01
  0.1204082E+01  0.0000000E+00  0.2653061E+00 -0.3402306E-04  0.0000000E+00 -0.8544573E-01
  0.1244898E+01  0.0000000E+00  0.2653061E+00 -0.3845070E-04  0.0000000E+00 -0.8545758E-01
  0.1285714E+01  0.0000000E+00  0.2653061E+00 -0.4225062E-04  0.0000000E+00 -0.8547078E-01
  0.1326531E+01  0.0000000E+00  0.2653061E+00 -0.4536546E-04  0.0000000E+00 -0.8548510E-01