title = "dataset feddes"
variables = "x", "y", "z", "vx", "vy", "vz"
zone t = "velocities, solution time =  5.500E+01 days        " i =   49, j =   49, k =    1,  f=point
  0.2040816E-01  0.0000000E+00  0.2040816E-01  0.6354641E-06  0.0000000E+00 -0.8497437E-01
  0.6122449E-01  0.0000000E+00  0.2040816E-01  0.1895375E-05  0.0000000E+00 -0.8497150E-01
  0.1020408E+00  0.0000000E+00  0.2040816E-01  0.3122197E-05  0.0000000E+00 -0.8496580E-01
  0.1428571E+00  0.0000000E+00  0.2040816E-01  0.4291787E-05  0.0000000E+00 -0.8495738E-01
  0.1836735E+00  0.0000000E+00  0.2040816E-01  0.5387138E-05  0.0000000E+00 -0.8494639E-01
  0.2244898E+00  0.0000000E+00  0.2040816E-01  0.6387832E-05  0.0000000E+00 -0.8493303E-01
  0.2653061E+00  0.0000000E+00  0.2040816E-01  0.7273609E-05  0.0000000E+00 -0.8491752E-01
  0.3061225E+00  0.0000000E+00  0.2040816E-01  0.8026054E-05  0.0000000E+00 -0.8490015E-01
  0.3469388E+00  0.0000000E+00  0.2040816E-01  0.8628913E-05  0.0000000E+00 -0.8488124E-01
  0.3877551E+00  0.0000000E+00  0.2040816E-01  0.9068235E-05  0.0000000E+00 -0.8486115E-01
  0.4285714E+00  0.0000000E+00  0.2040816E-01  0.9332659E-05  0.0000000E+00 -0.8484027E-01
  0.4693878E+00  0.0000000E+00  0.2040816E-01  0.9413837E-05  0.0000000E+00 -0.8481899E-01
  0.5102041E+00  0.0000000E+00  0.2040816E-01  0.9306926E-05  0.0000000E+00 -0.8479774E-01
  0.5510204E+00  0.0000000E+00  0.2040816E-01  0.9011039E-05  0.0000000E+00 -0.8477695E-01
  0.5918368E+00  0.0000000E+00  0.2040816E-01  0.8529529E-05  0.0000000E+00 -0.8475704E-01
  0.6326531E+00  0.0000000E+00  0.2040816E-01  0.7869998E-05  0.0000000E+00 -0.8473843E-01
  0.6734694E+00  0.0000000E+00  0.2040816E-01  0.7043986E-05  0.0000000E+00 -0.8472150E-01
  0.7142857E+00  0.0000000E+00  0.2040816E-01  0.6066469E-05  0.0000000E+00 -0.8470662E-01
  0.7551020E+00  0.0000000E+00  0.2040816E-01  0.4955355E-05  0.0000000E+00 -0.8469411E-01
  0.7959183E+00  0.0000000E+00  0.2040816E-01  0.3731088E-05  0.0000000E+00 -0.8468426E-01
  0.8367347E+00  0.0000000E+00  0.2040816E-01  0.2416244E-05  0.0000000E+00 -0.8467728E-01
  0.8775510E+00  0.0000000E+00  0.2040816E-01  0.1035042E-05  0.0000000E+00 -0.8467336E-01
  0.9183673E+00  0.0000000E+00  0.2040816E-01 -0.3870885E-06  0.0000000E+00 -0.8467263E-01
  0.9591837E+00  0.0000000E+00  0.2040816E-01 -0.1821975E-05  0.0000000E+00 -0.8467513E-01
  0.1000000E+01  0.0000000E+00  0.2040816E-01 -0.3243076E-05  0.0000000E+00 -0.8468088E-01
  0.1040816E+01  0.0000000E+00  0.2040816E-01 -0.4621084E-05  0.0000000E+00 -0.8468981E-01
  0.1081633E+01  0.0000000E+00  0.2040816E-01 -0.5937012E-05  0.0000000E+00 -0.8470179E-01
  0.1122449E+01  0.0000000E+00  0.2040816E-01 -0.7168609E-05  0.0000000E+00 -0.8471666E-01
  0.1163265E+01  0.0000000E+00  0.2040816E-01 -0.8294866E-05  0.0000000E+00 -0.8473421E-01
  0.1204082E+01  0.0000000E+00  0.2040816E-01 -0.9297844E-05  0.0000000E+00 -0.8475418E-01
  0.1244898E+01  0.0000000E+00  0.2040816E-01 -0.1016279E-04  0.0000000E+00 -0.8477626E-01
  0.1285714E+01  0.0000000E+00  0.2040816E-01 -0.1087790E-04  0.0000000E+00 -0.8480015E-01
  0.1326531E+01  0.0000000E+00  0.2040816E-01 -0.1143419E-04  0.0000000E+00 -0.8482547E-01
  0.1367347E+01  0.0000000E+00  0.2040816E-01 -0.1182544E-04  0.0000000E+00 -0.8485187E-01
  0.1408163E+01  0.0000000E+00  0.2040816E-01 -0.1204815E-04  0.0000000E+00 -0.8487897E-01
  0.1448980E+01  0.0000000E+00  0.2040816E-01 -0.1210145E-04  0.0000000E+00 -0.8490639E-01
  0.1489796E+01  0.0000000E+00  0.2040816E-01 -0.1198695E-04  0.0000000E+00 -0.8493373E-01
  0.1530612E+01  0.0000000E+00  0.2040816E-01 -0.1170864E-04  0.0000000E+00 -0.8496063E-01
  0.1571429E+01  0.0000000E+00  0.2040816E-01 -0.1127260E-04  0.0000000E+00 -0.8498672E-01
  0.1612245E+01  0.0000000E+00  0.2040816E-01 -0.1068685E-04  0.0000000E+00 -0.8501166E-01
  0.1653061E+01  0.0000000E+00  0.2040816E-01 -0.9961100E-05  0.0000000E+00 -0.8503510E-01
  0.1693878E+01  0.0000000E+00  0.2040816E-01 -0.9106574E-05  0.0000000E+00 -0.8505675E-01
  0.1734694E+01  0.0000000E+00  0.2040816E-01 -0.8135780E-05  0.0000000E+00 -0.8507633E-01
  0.1775510E+01  0.0000000E+00  0.2040816E-01 -0.7062282E-05  0.0000000E+00 -0.8509359E-01
  0.1816326E+01  0.0000000E+00  0.2040816E-01 -0.5900573E-05  0.0000000E+00 -0.8510831E-01
  0.1857143E+01  0.0000000E+00  0.2040816E-01 -0.4665932E-05  0.0000000E+00 -0.8512031E-01
  0.1897959E+01  0.0000000E+00  0.2040816E-01 -0.3374163E-05  0.0000000E+00 -0.8512944E-01
  0.1938776E+01  0.0000000E+00  0.2040816E-01 -0.2041329E-05  0.0000000E+00 -0.8513559E-01
  0.1989796E+01  0.0000000E+00  0.2040816E-01 -0.6835324E-06  0.0000000E+00 -0.8513868E-01
  0.2040816E-01  0.0000000E+00  0.6122449E-01  0.1743291E-05  0.0000000E+00 -0.8497689E-01
  0.6122449E-01  0.0000000E+00  0.6122449E-01  0.5197700E-05  0.0000000E+00 -0.8497397E-01
  0.1020408E+00  0.0000000E+00  0.6122449E-01  0.8562206E-05  0.0000000E+00 -0.8496819E-01
  0.1428571E+00  0.0000000E+00  0.6122449E-01  0.1177163E-04  0.0000000E+00 -0.8495964E-01
  0.1836735E+00  0.0000000E+00  0.6122449E-01  0.1477731E-04  0.0000000E+00 -0.8494848E-01
  0.2244898E+00  0.0000000E+00  0.6122449E-01  0.1752342E-04  0.0000000E+00 -0.8493490E-01
  0.2653061E+00  0.0000000E+00  0.6122449E-01  0.1995481E-04  0.0000000E+00 -0.8491914E-01
  0.3061225E+00  0.0000000E+00  0.6122449E-01  0.2202112E-04  0.0000000E+00 -0.8490149E-01
  0.3469388E+00  0.0000000E+00  0.6122449E-01  0.2367768E-04  0.0000000E+00 -0.8488227E-01
  0.3877551E+00  0.0000000E+00  0.6122449E-01  0.2488602E-04  0.0000000E+00 -0.8486185E-01
  0.4285714E+00  0.0000000E+00  0.6122449E-01  0.2561469E-04  0.0000000E+00 -0.8484060E-01
  0.4693878E+00  0.0000000E+00  0.6122449E-01  0.2584047E-04  0.0000000E+00 -0.8481895E-01
  0.5102041E+00  0.0000000E+00  0.6122449E-01  0.2554974E-04  0.0000000E+00 -0.8479733E-01
  0.5510204E+00  0.0000000E+00  0.6122449E-01  0.2473984E-04  0.0000000E+00 -0.8477616E-01
  0.5918368E+00  0.0000000E+00  0.6122449E-01  0.2341993E-04  0.0000000E+00 -0.8475589E-01
  0.6326531E+00  0.0000000E+00  0.6122449E-01  0.2161103E-04  0.0000000E+00 -0.8473693E-01
  0.6734694E+00  0.0000000E+00  0.6122449E-01  0.1934511E-04  0.0000000E+00 -0.8471969E-01
  0.7142857E+00  0.0000000E+00  0.6122449E-01  0.1666346E-04  0.0000000E+00 -0.8470453E-01
  0.7551020E+00  0.0000000E+00  0.6122449E-01  0.1361525E-04  0.0000000E+00 -0.8469177E-01
  0.7959183E+00  0.0000000E+00  0.6122449E-01  0.1025642E-04  0.0000000E+00 -0.8468171E-01
  0.8367347E+00  0.0000000E+00  0.6122449E-01  0.6648716E-05  0.0000000E+00 -0.8467457E-01
  0.8775510E+00  0.0000000E+00  0.6122449E-01  0.2858022E-05  0.0000000E+00 -0.8467055E-01
  0.9183673E+00  0.0000000E+00  0.6122449E-01 -0.1045065E-05  0.0000000E+00 -0.8466976E-01
  0.9591837E+00  0.0000000E+00  0.6122449E-01 -0.4980759E-05  0.0000000E+00 -0.8467227E-01
  0.1000000E+01  0.0000000E+00  0.6122449E-01 -0.8878660E-05  0.0000000E+00 -0.8467807E-01
  0.1040816E+01  0.0000000E+00  0.6122449E-01 -0.1265943E-04  0.0000000E+00 -0.8468710E-01
  0.1081633E+01  0.0000000E+00  0.6122449E-01 -0.1626836E-04  0.0000000E+00 -0.8469923E-01
  0.1122449E+01  0.0000000E+00  0.6122449E-01 -0.1964462E-04  0.0000000E+00 -0.8471430E-01
  0.1163265E+01  0.0000000E+00  0.6122449E-01 -0.2273126E-04  0.0000000E+00 -0.8473208E-01
  0.1204082E+01  0.0000000E+00  0.6122449E-01 -0.2547943E-04  0.0000000E+00 -0.8475230E-01
  0.1244898E+01  0.0000000E+00  0.6122449E-01 -0.2784882E-04  0.0000000E+00 -0.8477468E-01
  0.1285714E+01  0.0000000E+00  0.6122449E-01 -0.2980712E-04  0.0000000E+00 -0.8479887E-01
  0.1326531E+01  0.0000000E+00  0.6122449E-01 -0.3132983E-04  0.0000000E+00 -0.8482452E-01
  0.1367347E+01  0.0000000E+00  0.6122449E-01 -0.3239999E-04  0.0000000E+00 -0.8485125E-01
  0.1408163E+01  0.0000000E+00  0.6122449E-01 -0.3300813E-04  0.0000000E+00 -0.8487869E-01
  0.1448980E+01  0.0000000E+00  0.6122449E-01 -0.3315200E-04  0.0000000E+00 -0.8490644E-01
  0.1489796E+01  0.0000000E+00  0.6122449E-01 -0.3283617E-04  0.0000000E+00 -0.8493412E-01
  0.1530612E+01  0.0000000E+00  0.6122449E-01 -0.3207165E-04  0.0000000E+00 -0.8496134E-01
  0.1571429E+01  0.0000000E+00  0.6122449E-01 -0.3087530E-04  0.0000000E+00 -0.8498774E-01
  0.1612245E+01  0.0000000E+00  0.6122449E-01 -0.2926915E-04  0.0000000E+00 -0.8501296E-01
  0.1653061E+01  0.0000000E+00  0.6122449E-01 -0.2727988E-04  0.0000000E+00 -0.8503667E-01
  0.1693878E+01  0.0000000E+00  0.6122449E-01 -0.2493828E-04  0.0000000E+00 -0.8505857E-01
  0.1734694E+01  0.0000000E+00  0.6122449E-01 -0.2227864E-04  0.0000000E+00 -0.8507837E-01
  0.1775510E+01  0.0000000E+00  0.6122449E-01 -0.1933819E-04  0.0000000E+00 -0.8509582E-01
  0.1816326E+01  0.0000000E+00  0.6122449E-01 -0.1615658E-04  0.0000000E+00 -0.8511070E-01
  0.1857143E+01  0.0000000E+00  0.6122449E-01 -0.1277559E-04  0.0000000E+00 -0.8512283E-01
  0.1897959E+01  0.0000000E+00  0.6122449E-01 -0.9238461E-05  0.0000000E+00 -0.8513206E-01
  0.1938776E+01  0.0000000E+00  0.6122449E-01 -0.5589127E-05  0.0000000E+00 -0.8513827E-01
  0.1989796E+01  0.0000000E+00  0.6122449E-01 -0.1871421E-05  0.0000000E+00 -0.8514140E-01
  0.2040816E-01  0.0000000E+00  0.1020408E+00  0.2621330E-05  0.0000000E+00 -0.8498128E-01
  0.6122449E-01  0.0000000E+00  0.1020408E+00  0.7813712E-05  0.0000000E+00 -0.8497828E-01
  0.1020408E+00  0.0000000E+00  0.1020408E+00  0.1287226E-04  0.0000000E+00 -0.8497235E-01
  0.1428571E+00  0.0000000E+00  0.1020408E+00  0.1770119E-04  0.0000000E+00 -0.8496358E-01
  0.1836735E+00  0.0000000E+00  0.1020408E+00  0.2222429E-04  0.0000000E+00 -0.8495212E-01
  0.2244898E+00  0.0000000E+00  0.1020408E+00  0.2635789E-04  0.0000000E+00 -0.8493817E-01
  0.2653061E+00  0.0000000E+00  0.1020408E+00  0.3001986E-04  0.0000000E+00 -0.8492198E-01
  0.3061225E+00  0.0000000E+00  0.1020408E+00  0.3313471E-04  0.0000000E+00 -0.8490384E-01
  0.3469388E+00  0.0000000E+00  0.1020408E+00  0.3563501E-04  0.0000000E+00 -0.8488407E-01
  0.3877551E+00  0.0000000E+00  0.1020408E+00  0.3746232E-04  0.0000000E+00 -0.8486306E-01
  0.4285714E+00  0.0000000E+00  0.1020408E+00  0.3856850E-04  0.0000000E+00 -0.8484119E-01
  0.4693878E+00  0.0000000E+00  0.1020408E+00  0.3891761E-04  0.0000000E+00 -0.8481889E-01
  0.5102041E+00  0.0000000E+00  0.1020408E+00  0.3848814E-04  0.0000000E+00 -0.8479661E-01
  0.5510204E+00  0.0000000E+00  0.1020408E+00  0.3727531E-04  0.0000000E+00 -0.8477479E-01
  0.5918368E+00  0.0000000E+00  0.1020408E+00  0.3529272E-04  0.0000000E+00 -0.8475388E-01
  0.6326531E+00  0.0000000E+00  0.1020408E+00  0.3257264E-04  0.0000000E+00 -0.8473432E-01
  0.6734694E+00  0.0000000E+00  0.1020408E+00  0.2916422E-04  0.0000000E+00 -0.8471652E-01
  0.7142857E+00  0.0000000E+00  0.1020408E+00  0.2513029E-04  0.0000000E+00 -0.8470086E-01
  0.7551020E+00  0.0000000E+00  0.1020408E+00  0.2054478E-04  0.0000000E+00 -0.8468767E-01
  0.7959183E+00  0.0000000E+00  0.1020408E+00  0.1549120E-04  0.0000000E+00 -0.8467725E-01
  0.8367347E+00  0.0000000E+00  0.1020408E+00  0.1006167E-04  0.0000000E+00 -0.8466985E-01
  0.8775510E+00  0.0000000E+00  0.1020408E+00  0.4355694E-05  0.0000000E+00 -0.8466564E-01
  0.9183673E+00  0.0000000E+00  0.1020408E+00 -0.1520088E-05  0.0000000E+00 -0.8466476E-01
  0.9591837E+00  0.0000000E+00  0.1020408E+00 -0.7441368E-05  0.0000000E+00 -0.8466727E-01
  0.1000000E+01  0.0000000E+00  0.1020408E+00 -0.1330417E-04  0.0000000E+00 -0.8467316E-01
  0.1040816E+01  0.0000000E+00  0.1020408E+00 -0.1899112E-04  0.0000000E+00 -0.8468237E-01
  0.1081633E+01  0.0000000E+00  0.1020408E+00 -0.2441584E-04  0.0000000E+00 -0.8469477E-01
  0.1122449E+01  0.0000000E+00  0.1020408E+00 -0.2948744E-04  0.0000000E+00 -0.8471017E-01
  0.1163265E+01  0.0000000E+00  0.1020408E+00 -0.3412157E-04  0.0000000E+00 -0.8472835E-01
  0.1204082E+01  0.0000000E+00  0.1020408E+00 -0.3824565E-04  0.0000000E+00 -0.8474903E-01
  0.1244898E+01  0.0000000E+00  0.1020408E+00 -0.4179949E-04  0.0000000E+00 -0.8477191E-01
  0.1285714E+01  0.0000000E+00  0.1020408E+00 -0.4473483E-04  0.0000000E+00 -0.8479663E-01
  0.1326531E+01  0.0000000E+00  0.1020408E+00 -0.4701514E-04  0.0000000E+00 -0.8482285E-01
  0.1367347E+01  0.0000000E+00  0.1020408E+00 -0.4861531E-04  0.0000000E+00 -0.8485016E-01
  0.1408163E+01  0.0000000E+00  0.1020408E+00 -0.4952150E-04  0.0000000E+00 -0.8487819E-01
  0.1448980E+01  0.0000000E+00  0.1020408E+00 -0.4973077E-04  0.0000000E+00 -0.8490653E-01
  0.1489796E+01  0.0000000E+00  0.1020408E+00 -0.4925041E-04  0.0000000E+00 -0.8493478E-01
  0.1530612E+01  0.0000000E+00  0.1020408E+00 -0.4809730E-04  0.0000000E+00 -0.8496257E-01
  0.1571429E+01  0.0000000E+00  0.1020408E+00 -0.4629710E-04  0.0000000E+00 -0.8498950E-01
  0.1612245E+01  0.0000000E+00  0.1020408E+00 -0.4388323E-04  0.0000000E+00 -0.8501523E-01
  0.1653061E+01  0.0000000E+00  0.1020408E+00 -0.4089594E-04  0.0000000E+00 -0.8503941E-01
  0.1693878E+01  0.0000000E+00  0.1020408E+00 -0.3738150E-04  0.0000000E+00 -0.8506173E-01
  0.1734694E+01  0.0000000E+00  0.1020408E+00 -0.3339146E-04  0.0000000E+00 -0.8508190E-01
  0.1775510E+01  0.0000000E+00  0.1020408E+00 -0.2898173E-04  0.0000000E+00 -0.8509968E-01
  0.1816326E+01  0.0000000E+00  0.1020408E+00 -0.2421178E-04  0.0000000E+00 -0.8511485E-01
  0.1857143E+01  0.0000000E+00  0.1020408E+00 -0.1914404E-04  0.0000000E+00 -0.8512720E-01
  0.1897959E+01  0.0000000E+00  0.1020408E+00 -0.1384309E-04  0.0000000E+00 -0.8513660E-01
  0.1938776E+01  0.0000000E+00  0.1020408E+00 -0.8374452E-05  0.0000000E+00 -0.8514293E-01
  0.1989796E+01  0.0000000E+00  0.1020408E+00 -0.2803899E-05  0.0000000E+00 -0.8514612E-01
  0.2040816E-01  0.0000000E+00  0.1428571E+00  0.3393529E-05  0.0000000E+00 -0.8498726E-01
  0.6122449E-01  0.0000000E+00  0.1428571E+00  0.1011574E-04  0.0000000E+00 -0.8498417E-01
  0.1020408E+00  0.0000000E+00  0.1428571E+00  0.1666607E-04  0.0000000E+00 -0.8497802E-01
  0.1428571E+00  0.0000000E+00  0.1428571E+00  0.2292305E-04  0.0000000E+00 -0.8496894E-01
  0.1836735E+00  0.0000000E+00  0.1428571E+00  0.2878603E-04  0.0000000E+00 -0.8495708E-01
  0.2244898E+00  0.0000000E+00  0.1428571E+00  0.3414710E-04  0.0000000E+00 -0.8494263E-01
  0.2653061E+00  0.0000000E+00  0.1428571E+00  0.3890072E-04  0.0000000E+00 -0.8492585E-01
  0.3061225E+00  0.0000000E+00  0.1428571E+00  0.4294929E-04  0.0000000E+00 -0.8490704E-01
  0.3469388E+00  0.0000000E+00  0.1428571E+00  0.4620504E-04  0.0000000E+00 -0.8488654E-01
  0.3877551E+00  0.0000000E+00  0.1428571E+00  0.4859124E-04  0.0000000E+00 -0.8486472E-01
  0.4285714E+00  0.0000000E+00  0.1428571E+00  0.5004399E-04  0.0000000E+00 -0.8484199E-01
  0.4693878E+00  0.0000000E+00  0.1428571E+00  0.5051473E-04  0.0000000E+00 -0.8481881E-01
  0.5102041E+00  0.0000000E+00  0.1428571E+00  0.4997343E-04  0.0000000E+00 -0.8479562E-01
  0.5510204E+00  0.0000000E+00  0.1428571E+00  0.4841214E-04  0.0000000E+00 -0.8477290E-01
  0.5918368E+00  0.0000000E+00  0.1428571E+00  0.4584803E-04  0.0000000E+00 -0.8475112E-01
  0.6326531E+00  0.0000000E+00  0.1428571E+00  0.4232439E-04  0.0000000E+00 -0.8473074E-01
  0.6734694E+00  0.0000000E+00  0.1428571E+00  0.3790761E-04  0.0000000E+00 -0.8471218E-01
  0.7142857E+00  0.0000000E+00  0.1428571E+00  0.3268071E-04  0.0000000E+00 -0.8469584E-01
  0.7551020E+00  0.0000000E+00  0.1428571E+00  0.2673921E-04  0.0000000E+00 -0.8468206E-01
  0.7959183E+00  0.0000000E+00  0.1428571E+00  0.2018955E-04  0.0000000E+00 -0.8467115E-01
  0.8367347E+00  0.0000000E+00  0.1428571E+00  0.1314911E-04  0.0000000E+00 -0.8466337E-01
  0.8775510E+00  0.0000000E+00  0.1428571E+00  0.5748679E-05  0.0000000E+00 -0.8465890E-01
  0.9183673E+00  0.0000000E+00  0.1428571E+00 -0.1873241E-05  0.0000000E+00 -0.8465790E-01
  0.9591837E+00  0.0000000E+00  0.1428571E+00 -0.9551158E-05  0.0000000E+00 -0.8466042E-01
  0.1000000E+01  0.0000000E+00  0.1428571E+00 -0.1714825E-04  0.0000000E+00 -0.8466644E-01
  0.1040816E+01  0.0000000E+00  0.1428571E+00 -0.2451411E-04  0.0000000E+00 -0.8467591E-01
  0.1081633E+01  0.0000000E+00  0.1428571E+00 -0.3153429E-04  0.0000000E+00 -0.8468867E-01
  0.1122449E+01  0.0000000E+00  0.1428571E+00 -0.3809209E-04  0.0000000E+00 -0.8470453E-01
  0.1163265E+01  0.0000000E+00  0.1428571E+00 -0.4408002E-04  0.0000000E+00 -0.8472326E-01
  0.1204082E+01  0.0000000E+00  0.1428571E+00 -0.4940531E-04  0.0000000E+00 -0.8474456E-01
  0.1244898E+01  0.0000000E+00  0.1428571E+00 -0.5399079E-04  0.0000000E+00 -0.8476813E-01
  0.1285714E+01  0.0000000E+00  0.1428571E+00 -0.5777460E-04  0.0000000E+00 -0.8479359E-01
  0.1326531E+01  0.0000000E+00  0.1428571E+00 -0.6071002E-04  0.0000000E+00 -0.8482057E-01
  0.1367347E+01  0.0000000E+00  0.1428571E+00 -0.6276526E-04  0.0000000E+00 -0.8484868E-01
  0.1408163E+01  0.0000000E+00  0.1428571E+00 -0.6392318E-04  0.0000000E+00 -0.8487751E-01
  0.1448980E+01  0.0000000E+00  0.1428571E+00 -0.6418079E-04  0.0000000E+00 -0.8490665E-01
  0.1489796E+01  0.0000000E+00  0.1428571E+00 -0.6354833E-04  0.0000000E+00 -0.8493569E-01
  0.1530612E+01  0.0000000E+00  0.1428571E+00 -0.6204832E-04  0.0000000E+00 -0.8496424E-01
  0.1571429E+01  0.0000000E+00  0.1428571E+00 -0.5971454E-04  0.0000000E+00 -0.8499190E-01
  0.1612245E+01  0.0000000E+00  0.1428571E+00 -0.5659073E-04  0.0000000E+00 -0.8501831E-01
  0.1653061E+01  0.0000000E+00  0.1428571E+00 -0.5272936E-04  0.0000000E+00 -0.8504312E-01
  0.1693878E+01  0.0000000E+00  0.1428571E+00 -0.4819038E-04  0.0000000E+00 -0.8506602E-01
  0.1734694E+01  0.0000000E+00  0.1428571E+00 -0.4304037E-04  0.0000000E+00 -0.8508672E-01
  0.1775510E+01  0.0000000E+00  0.1428571E+00 -0.3735159E-04  0.0000000E+00 -0.8510495E-01
  0.1816326E+01  0.0000000E+00  0.1428571E+00 -0.3120077E-04  0.0000000E+00 -0.8512049E-01
  0.1857143E+01  0.0000000E+00  0.1428571E+00 -0.2466817E-04  0.0000000E+00 -0.8513315E-01
  0.1897959E+01  0.0000000E+00  0.1428571E+00 -0.1783649E-04  0.0000000E+00 -0.8514278E-01
  0.1938776E+01  0.0000000E+00  0.1428571E+00 -0.1078942E-04  0.0000000E+00 -0.8514927E-01
  0.1989796E+01  0.0000000E+00  0.1428571E+00 -0.3612288E-05  0.0000000E+00 -0.8515253E-01
  0.2040816E-01  0.0000000E+00  0.1836735E+00  0.4102650E-05  0.0000000E+00 -0.8499469E-01
  0.6122449E-01  0.0000000E+00  0.1836735E+00  0.1223074E-04  0.0000000E+00 -0.8499146E-01
  0.1020408E+00  0.0000000E+00  0.1836735E+00  0.2015298E-04  0.0000000E+00 -0.8498507E-01
  0.1428571E+00  0.0000000E+00  0.1836735E+00  0.2772515E-04  0.0000000E+00 -0.8497561E-01
  0.1836735E+00  0.0000000E+00  0.1836735E+00  0.3482459E-04  0.0000000E+00 -0.8496324E-01
  0.2244898E+00  0.0000000E+00  0.1836735E+00  0.4132156E-04  0.0000000E+00 -0.8494818E-01
  0.2653061E+00  0.0000000E+00  0.1836735E+00  0.4708924E-04  0.0000000E+00 -0.8493067E-01
  0.3061225E+00  0.0000000E+00  0.1836735E+00  0.5200976E-04  0.0000000E+00 -0.8491104E-01
  0.3469388E+00  0.0000000E+00  0.1836735E+00  0.5597629E-04  0.0000000E+00 -0.8488961E-01
  0.3877551E+00  0.0000000E+00  0.1836735E+00  0.5889453E-04  0.0000000E+00 -0.8486679E-01
  0.4285714E+00  0.0000000E+00  0.1836735E+00  0.6068471E-04  0.0000000E+00 -0.8484301E-01
  0.4693878E+00  0.0000000E+00  0.1836735E+00  0.6128477E-04  0.0000000E+00 -0.8481872E-01
  0.5102041E+00  0.0000000E+00  0.1836735E+00  0.6065442E-04  0.0000000E+00 -0.8479440E-01
  0.5510204E+00  0.0000000E+00  0.1836735E+00  0.5878049E-04  0.0000000E+00 -0.8477056E-01
  0.5918368E+00  0.0000000E+00  0.1836735E+00  0.5568250E-04  0.0000000E+00 -0.8474769E-01
  0.6326531E+00  0.0000000E+00  0.1836735E+00  0.5141588E-04  0.0000000E+00 -0.8472628E-01
  0.6734694E+00  0.0000000E+00  0.1836735E+00  0.4606730E-04  0.0000000E+00 -0.8470677E-01
  0.7142857E+00  0.0000000E+00  0.1836735E+00  0.3974052E-04  0.0000000E+00 -0.8468958E-01
  0.7551020E+00  0.0000000E+00  0.1836735E+00  0.3255000E-04  0.0000000E+00 -0.8467507E-01
  0.7959183E+00  0.0000000E+00  0.1836735E+00  0.2462083E-04  0.0000000E+00 -0.8466354E-01
  0.8367347E+00  0.0000000E+00  0.1836735E+00  0.1609082E-04  0.0000000E+00 -0.8465529E-01
  0.8775510E+00  0.0000000E+00  0.1836735E+00  0.7119363E-05  0.0000000E+00 -0.8465050E-01
  0.9183673E+00  0.0000000E+00  0.1836735E+00 -0.2122960E-05  0.0000000E+00 -0.8464935E-01
  0.9591837E+00  0.0000000E+00  0.1836735E+00 -0.1142870E-04  0.0000000E+00 -0.8465188E-01
  0.1000000E+01  0.0000000E+00  0.1836735E+00 -0.2062692E-04  0.0000000E+00 -0.8465808E-01
  0.1040816E+01  0.0000000E+00  0.1836735E+00 -0.2953689E-04  0.0000000E+00 -0.8466787E-01
  0.1081633E+01  0.0000000E+00  0.1836735E+00 -0.3801949E-04  0.0000000E+00 -0.8468108E-01
  0.1122449E+01  0.0000000E+00  0.1836735E+00 -0.4593574E-04  0.0000000E+00 -0.8469752E-01
  0.1163265E+01  0.0000000E+00  0.1836735E+00 -0.5315787E-04  0.0000000E+00 -0.8471694E-01
  0.1204082E+01  0.0000000E+00  0.1836735E+00 -0.5957530E-04  0.0000000E+00 -0.8473902E-01
  0.1244898E+01  0.0000000E+00  0.1836735E+00 -0.6509577E-04  0.0000000E+00 -0.8476344E-01
  0.1285714E+01  0.0000000E+00  0.1836735E+00 -0.6964532E-04  0.0000000E+00 -0.8478981E-01
  0.1326531E+01  0.0000000E+00  0.1836735E+00 -0.7316842E-04  0.0000000E+00 -0.8481776E-01
  0.1367347E+01  0.0000000E+00  0.1836735E+00 -0.7562773E-04  0.0000000E+00 -0.8484685E-01
  0.1408163E+01  0.0000000E+00  0.1836735E+00 -0.7700375E-04  0.0000000E+00 -0.8487668E-01
  0.1448980E+01  0.0000000E+00  0.1836735E+00 -0.7729412E-04  0.0000000E+00 -0.8490681E-01
  0.1489796E+01  0.0000000E+00  0.1836735E+00 -0.7651249E-04  0.0000000E+00 -0.8493682E-01
  0.1530612E+01  0.0000000E+00  0.1836735E+00 -0.7468723E-04  0.0000000E+00 -0.8496631E-01
  0.1571429E+01  0.0000000E+00  0.1836735E+00 -0.7186004E-04  0.0000000E+00 -0.8499487E-01
  0.1612245E+01  0.0000000E+00  0.1836735E+00 -0.6808449E-04  0.0000000E+00 -0.8502213E-01
  0.1653061E+01  0.0000000E+00  0.1836735E+00 -0.6342455E-04  0.0000000E+00 -0.8504772E-01
  0.1693878E+01  0.0000000E+00  0.1836735E+00 -0.5795291E-04  0.0000000E+00 -0.8507133E-01
  0.1734694E+01  0.0000000E+00  0.1836735E+00 -0.5174987E-04  0.0000000E+00 -0.8509266E-01
  0.1775510E+01  0.0000000E+00  0.1836735E+00 -0.4490243E-04  0.0000000E+00 -0.8511145E-01
  0.1816326E+01  0.0000000E+00  0.1836735E+00 -0.3750289E-04  0.0000000E+00 -0.8512745E-01
  0.1857143E+01  0.0000000E+00  0.1836735E+00 -0.2964754E-04  0.0000000E+00 -0.8514049E-01
  0.1897959E+01  0.0000000E+00  0.1836735E+00 -0.2143516E-04  0.0000000E+00 -0.8515041E-01
  0.1938776E+01  0.0000000E+00  0.1836735E+00 -0.1296525E-04  0.0000000E+00 -0.8515709E-01
  0.1989796E+01  0.0000000E+00  0.1836735E+00 -0.4340515E-05  0.0000000E+00 -0.8516045E-01
  0.2040816E-01  0.0000000E+00  0.2244898E+00  0.4773848E-05  0.0000000E+00 -0.8500346E-01
  0.6122449E-01  0.0000000E+00  0.2244898E+00  0.1423342E-04  0.0000000E+00 -0.8500009E-01
  0.1020408E+00  0.0000000E+00  0.2244898E+00  0.2345627E-04  0.0000000E+00 -0.8499339E-01
  0.1428571E+00  0.0000000E+00  0.2244898E+00  0.3227741E-04  0.0000000E+00 -0.8498349E-01
  0.1836735E+00  0.0000000E+00  0.2244898E+00  0.4055399E-04  0.0000000E+00 -0.8497054E-01
  0.2244898E+00  0.0000000E+00  0.2244898E+00  0.4813614E-04  0.0000000E+00 -0.8495475E-01
  0.2653061E+00  0.0000000E+00  0.2244898E+00  0.5487726E-04  0.0000000E+00 -0.8493639E-01
  0.3061225E+00  0.0000000E+00  0.2244898E+00  0.6064034E-04  0.0000000E+00 -0.8491578E-01
  0.3469388E+00  0.0000000E+00  0.2244898E+00  0.6530022E-04  0.0000000E+00 -0.8489327E-01
  0.3877551E+00  0.0000000E+00  0.2244898E+00  0.6874513E-04  0.0000000E+00 -0.8486928E-01
  0.4285714E+00  0.0000000E+00  0.2244898E+00  0.7087889E-04  0.0000000E+00 -0.8484424E-01
  0.4693878E+00  0.0000000E+00  0.2244898E+00  0.7162422E-04  0.0000000E+00 -0.8481863E-01
  0.5102041E+00  0.0000000E+00  0.2244898E+00  0.7092760E-04  0.0000000E+00 -0.8479297E-01
  0.5510204E+00  0.0000000E+00  0.2244898E+00  0.6876670E-04  0.0000000E+00 -0.8476778E-01
  0.5918368E+00  0.0000000E+00  0.2244898E+00  0.6516052E-04  0.0000000E+00 -0.8474361E-01
  0.6326531E+00  0.0000000E+00  0.2244898E+00  0.6017903E-04  0.0000000E+00 -0.8472097E-01
  0.6734694E+00  0.0000000E+00  0.2244898E+00  0.5393873E-04  0.0000000E+00 -0.8470035E-01
  0.7142857E+00  0.0000000E+00  0.2244898E+00  0.4656629E-04  0.0000000E+00 -0.8468216E-01
  0.7551020E+00  0.0000000E+00  0.2244898E+00  0.3819144E-04  0.0000000E+00 -0.8466678E-01
  0.7959183E+00  0.0000000E+00  0.2244898E+00  0.2895215E-04  0.0000000E+00 -0.8465452E-01
  0.8367347E+00  0.0000000E+00  0.2244898E+00  0.1900070E-04  0.0000000E+00 -0.8464570E-01
  0.8775510E+00  0.0000000E+00  0.2244898E+00  0.8520880E-05  0.0000000E+00 -0.8464053E-01
  0.9183673E+00  0.0000000E+00  0.2244898E+00 -0.2281901E-05  0.0000000E+00 -0.8463919E-01
  0.9591837E+00  0.0000000E+00  0.2244898E+00 -0.1314949E-04  0.0000000E+00 -0.8464175E-01
  0.1000000E+01  0.0000000E+00  0.2244898E+00 -0.2387408E-04  0.0000000E+00 -0.8464817E-01
  0.1040816E+01  0.0000000E+00  0.2244898E+00 -0.3424772E-04  0.0000000E+00 -0.8465835E-01
  0.1081633E+01  0.0000000E+00  0.2244898E+00 -0.4411072E-04  0.0000000E+00 -0.8467211E-01
  0.1122449E+01  0.0000000E+00  0.2244898E+00 -0.5330519E-04  0.0000000E+00 -0.8468925E-01
  0.1163265E+01  0.0000000E+00  0.2244898E+00 -0.6168544E-04  0.0000000E+00 -0.8470948E-01
  0.1204082E+01  0.0000000E+00  0.2244898E+00 -0.6912451E-04  0.0000000E+00 -0.8473248E-01
  0.1244898E+01  0.0000000E+00  0.2244898E+00 -0.7551617E-04  0.0000000E+00 -0.8475791E-01
  0.1285714E+01  0.0000000E+00  0.2244898E+00 -0.8077541E-04  0.0000000E+00 -0.8478537E-01
  0.1326531E+01  0.0000000E+00  0.2244898E+00 -0.8483883E-04  0.0000000E+00 -0.8481445E-01
  0.1367347E+01  0.0000000E+00  0.2244898E+00 -0.8766458E-04  0.0000000E+00 -0.8484471E-01
  0.1408163E+01  0.0000000E+00  0.2244898E+00 -0.8923169E-04  0.0000000E+00 -0.8487571E-01
  0.1448980E+01  0.0000000E+00  0.2244898E+00 -0.8953924E-04  0.0000000E+00 -0.8490701E-01
  0.1489796E+01  0.0000000E+00  0.2244898E+00 -0.8860493E-04  0.0000000E+00 -0.8493817E-01
  0.1530612E+01  0.0000000E+00  0.2244898E+00 -0.8646340E-04  0.0000000E+00 -0.8496877E-01
  0.1571429E+01  0.0000000E+00  0.2244898E+00 -0.8316449E-04  0.0000000E+00 -0.8499838E-01
  0.1612245E+01  0.0000000E+00  0.2244898E+00 -0.7877152E-04  0.0000000E+00 -0.8502663E-01
  0.1653061E+01  0.0000000E+00  0.2244898E+00 -0.7335957E-04  0.0000000E+00 -0.8505314E-01
  0.1693878E+01  0.0000000E+00  0.2244898E+00 -0.6701360E-04  0.0000000E+00 -0.8507758E-01
  0.1734694E+01  0.0000000E+00  0.2244898E+00 -0.5982689E-04  0.0000000E+00 -0.8509966E-01
  0.1775510E+01  0.0000000E+00  0.2244898E+00 -0.5190008E-04  0.0000000E+00 -0.8511909E-01
  0.1816326E+01  0.0000000E+00  0.2244898E+00 -0.4333980E-04  0.0000000E+00 -0.8513564E-01
  0.1857143E+01  0.0000000E+00  0.2244898E+00 -0.3425710E-04  0.0000000E+00 -0.8514912E-01
  0.1897959E+01  0.0000000E+00  0.2244898E+00 -0.2476537E-04  0.0000000E+00 -0.8515937E-01
  0.1938776E+01  0.0000000E+00  0.2244898E+00 -0.1497833E-04  0.0000000E+00 -0.8516627E-01
  0.1989796E+01  0.0000000E+00  0.2244898E+00 -0.5014201E-05  0.0000000E+00 -0.8516974E-01
  0.2040816E-01  0.0000000E+00  0.2653061E+00  0.5424080E-05  0.0000000E+00 -0.8501352E-01
  0.6122449E-01  0.0000000E+00  0.2653061E+00  0.1617427E-04  0.0000000E+00 -0.8500998E-01
  0.1020408E+00  0.0000000E+00  0.2653061E+00  0.2665927E-04  0.0000000E+00 -0.8500295E-01
  0.1428571E+00  0.0000000E+00  0.2653061E+00  0.3669487E-04  0.0000000E+00 -0.8499254E-01
  0.1836735E+00  0.0000000E+00  0.2653061E+00  0.4611943E-04  0.0000000E+00 -0.8497892E-01
  0.2244898E+00  0.0000000E+00  0.2653061E+00  0.5476418E-04  0.0000000E+00 -0.8496232E-01
  0.2653061E+00  0.0000000E+00  0.2653061E+00  0.6246380E-04  0.0000000E+00 -0.8494299E-01
  0.3061225E+00  0.0000000E+00  0.2653061E+00  0.6906293E-04  0.0000000E+00 -0.8492127E-01
  0.3469388E+00  0.0000000E+00  0.2653061E+00  0.7441847E-04  0.0000000E+00 -0.8489753E-01
  0.3877551E+00  0.0000000E+00  0.2653061E+00  0.7840120E-04  0.0000000E+00 -0.8487218E-01
  0.4285714E+00  0.0000000E+00  0.2653061E+00  0.8089772E-04  0.0000000E+00 -0.8484570E-01
  0.4693878E+00  0.0000000E+00  0.2653061E+00  0.8181347E-04  0.0000000E+00 -0.8481857E-01
  0.5102041E+00  0.0000000E+00  0.2653061E+00  0.8107739E-04  0.0000000E+00 -0.8479135E-01
  0.5510204E+00  0.0000000E+00  0.2653061E+00  0.7865069E-04  0.0000000E+00 -0.8476459E-01
  0.5918368E+00  0.0000000E+00  0.2653061E+00  0.7454384E-04  0.0000000E+00 -0.8473890E-01
  0.6326531E+00  0.0000000E+00  0.2653061E+00  0.6884338E-04  0.0000000E+00 -0.8471486E-01
  0.6734694E+00  0.0000000E+00  0.2653061E+00  0.6172296E-04  0.0000000E+00 -0.8469296E-01
  0.7142857E+00  0.0000000E+00  0.2653061E+00  0.5333458E-04  0.0000000E+00 -0.8467363E-01
  0.7551020E+00  0.0000000E+00  0.2653061E+00  0.4381525E-04  0.0000000E+00 -0.8465724E-01
  0.7959183E+00  0.0000000E+00  0.2653061E+00  0.3330689E-04  0.0000000E+00 -0.8464414E-01
  0.8367347E+00  0.0000000E+00  0.2653061E+00  0.2196724E-04  0.0000000E+00 -0.8463464E-01
  0.8775510E+00  0.0000000E+00  0.2653061E+00  0.9996008E-05  0.0000000E+00 -0.8462901E-01
  0.9183673E+00  0.0000000E+00  0.2653061E+00 -0.2363592E-05  0.0000000E+00 -0.8462747E-01
  0.9591837E+00  0.0000000E+00  0.2653061E+00 -0.1477484E-04  0.0000000E+00 -0.8463007E-01
  0.1000000E+01  0.0000000E+00  0.2653061E+00 -0.2699033E-04  0.0000000E+00 -0.8463677E-01
  0.1040816E+01  0.0000000E+00  0.2653061E+00 -0.3878233E-04  0.0000000E+00 -0.8464741E-01
  0.1081633E+01  0.0000000E+00  0.2653061E+00 -0.4997705E-04  0.0000000E+00 -0.8466183E-01
  0.1122449E+01  0.0000000E+00  0.2653061E+00 -0.6040131E-04  0.0000000E+00 -0.8467976E-01
  0.1163265E+01  0.0000000E+00  0.2653061E+00 -0.6989307E-04  0.0000000E+00 -0.8470093E-01
  0.1204082E+01  0.0000000E+00  0.2653061E+00 -0.7830957E-04  0.0000000E+00 -0.8472501E-01
  0.1244898E+01  0.0000000E+00  0.2653061E+00 -0.8553098E-04  0.0000000E+00 -0.8475160E-01
  0.1285714E+01  0.0000000E+00  0.2653061E+00 -0.9146168E-04  0.0000000E+00 -0.8478031E-01
  0.1326531E+01  0.0000000E+00  0.2653061E+00 -0.9603119E-04  0.0000000E+00 -0.8481069E-01