title = "dataset feddes"
variables = "x", "y", "z", "vx", "vy", "vz"
zone t = "velocities, solution time =  1.200E+01 days        " i =   49, j =   49, k =    1,  f=point
  0.2040816E-01  0.0000000E+00  0.2040816E-01  0.6418721E-07  0.0000000E+00 -0.8624324E-01
  0.6122449E-01  0.0000000E+00  0.2040816E-01  0.1935524E-06  0.0000000E+00 -0.8624295E-01
  0.1020408E+00  0.0000000E+00  0.2040816E-01  0.3200931E-06  0.0000000E+00 -0.8624237E-01
  0.1428571E+00  0.0000000E+00  0.2040816E-01  0.4414733E-06  0.0000000E+00 -0.8624150E-01
  0.1836735E+00  0.0000000E+00  0.2040816E-01  0.5557041E-06  0.0000000E+00 -0.8624036E-01
  0.2244898E+00  0.0000000E+00  0.2040816E-01  0.6608799E-06  0.0000000E+00 -0.8623898E-01
  0.2653061E+00  0.0000000E+00  0.2040816E-01  0.7554435E-06  0.0000000E+00 -0.8623737E-01
  0.3061225E+00  0.0000000E+00  0.2040816E-01  0.8377344E-06  0.0000000E+00 -0.8623556E-01
  0.3469388E+00  0.0000000E+00  0.2040816E-01  0.9062588E-06  0.0000000E+00 -0.8623357E-01
  0.3877551E+00  0.0000000E+00  0.2040816E-01  0.9598108E-06  0.0000000E+00 -0.8623145E-01
  0.4285714E+00  0.0000000E+00  0.2040816E-01  0.9974285E-06  0.0000000E+00 -0.8622922E-01
  0.4693878E+00  0.0000000E+00  0.2040816E-01  0.1018361E-05  0.0000000E+00 -0.8622693E-01
  0.5102041E+00  0.0000000E+00  0.2040816E-01  0.1022088E-05  0.0000000E+00 -0.8622461E-01
  0.5510204E+00  0.0000000E+00  0.2040816E-01  0.1008356E-05  0.0000000E+00 -0.8622230E-01
  0.5918368E+00  0.0000000E+00  0.2040816E-01  0.9772092E-06  0.0000000E+00 -0.8622004E-01
  0.6326531E+00  0.0000000E+00  0.2040816E-01  0.9290025E-06  0.0000000E+00 -0.8621787E-01
  0.6734694E+00  0.0000000E+00  0.2040816E-01  0.8643980E-06  0.0000000E+00 -0.8621583E-01
  0.7142857E+00  0.0000000E+00  0.2040816E-01  0.7843588E-06  0.0000000E+00 -0.8621396E-01
  0.7551020E+00  0.0000000E+00  0.2040816E-01  0.6901379E-06  0.0000000E+00 -0.8621228E-01
  0.7959183E+00  0.0000000E+00  0.2040816E-01  0.5832640E-06  0.0000000E+00 -0.8621083E-01
  0.8367347E+00  0.0000000E+00  0.2040816E-01  0.4655229E-06  0.0000000E+00 -0.8620964E-01
  0.8775510E+00  0.0000000E+00  0.2040816E-01  0.3389275E-06  0.0000000E+00 -0.8620872E-01
  0.9183673E+00  0.0000000E+00  0.2040816E-01  0.2056795E-06  0.0000000E+00 -0.8620811E-01
  0.9591837E+00  0.0000000E+00  0.2040816E-01  0.6813595E-07  0.0000000E+00 -0.8620779E-01
  0.1000000E+01  0.0000000E+00  0.2040816E-01 -0.7141061E-07  0.0000000E+00 -0.8620780E-01
  0.1040816E+01  0.0000000E+00  0.2040816E-01 -0.2103435E-06  0.0000000E+00 -0.8620812E-01
  0.1081633E+01  0.0000000E+00  0.2040816E-01 -0.3462995E-06  0.0000000E+00 -0.8620875E-01
  0.1122449E+01  0.0000000E+00  0.2040816E-01 -0.4771978E-06  0.0000000E+00 -0.8620969E-01
  0.1163265E+01  0.0000000E+00  0.2040816E-01 -0.6004974E-06  0.0000000E+00 -0.8621091E-01
  0.1204082E+01  0.0000000E+00  0.2040816E-01 -0.7139585E-06  0.0000000E+00 -0.8621241E-01
  0.1244898E+01  0.0000000E+00  0.2040816E-01 -0.8158798E-06  0.0000000E+00 -0.8621415E-01
  0.1285714E+01  0.0000000E+00  0.2040816E-01 -0.9044878E-06  0.0000000E+00 -0.8621611E-01
  0.1326531E+01  0.0000000E+00  0.2040816E-01 -0.9782728E-06  0.0000000E+00 -0.8621825E-01
  0.1367347E+01  0.0000000E+00  0.2040816E-01 -0.1036124E-05  0.0000000E+00 -0.8622054E-01
  0.1408163E+01  0.0000000E+00  0.2040816E-01 -0.1077253E-05  0.0000000E+00 -0.8622294E-01
  0.1448980E+01  0.0000000E+00  0.2040816E-01 -0.1101125E-05  0.0000000E+00 -0.8622542E-01
  0.1489796E+01  0.0000000E+00  0.2040816E-01 -0.1107463E-05  0.0000000E+00 -0.8622793E-01
  0.1530612E+01  0.0000000E+00  0.2040816E-01 -0.1096272E-05  0.0000000E+00 -0.8623044E-01
  0.1571429E+01  0.0000000E+00  0.2040816E-01 -0.1067843E-05  0.0000000E+00 -0.8623290E-01
  0.1612245E+01  0.0000000E+00  0.2040816E-01 -0.1022752E-05  0.0000000E+00 -0.8623528E-01
  0.1653061E+01  0.0000000E+00  0.2040816E-01 -0.9618316E-06  0.0000000E+00 -0.8623754E-01
  0.1693878E+01  0.0000000E+00  0.2040816E-01 -0.8861438E-06  0.0000000E+00 -0.8623964E-01
  0.1734694E+01  0.0000000E+00  0.2040816E-01 -0.7969523E-06  0.0000000E+00 -0.8624155E-01
  0.1775510E+01  0.0000000E+00  0.2040816E-01 -0.6956976E-06  0.0000000E+00 -0.8624325E-01
  0.1816326E+01  0.0000000E+00  0.2040816E-01 -0.5839766E-06  0.0000000E+00 -0.8624471E-01
  0.1857143E+01  0.0000000E+00  0.2040816E-01 -0.4635256E-06  0.0000000E+00 -0.8624590E-01
  0.1897959E+01  0.0000000E+00  0.2040816E-01 -0.3362036E-06  0.0000000E+00 -0.8624681E-01
  0.1938776E+01  0.0000000E+00  0.2040816E-01 -0.2039827E-06  0.0000000E+00 -0.8624742E-01
  0.1989796E+01  0.0000000E+00  0.2040816E-01 -0.6897327E-07  0.0000000E+00 -0.8624773E-01
  0.2040816E-01  0.0000000E+00  0.6122449E-01  0.1763468E-06  0.0000000E+00 -0.8624349E-01
  0.6122449E-01  0.0000000E+00  0.6122449E-01  0.5307891E-06  0.0000000E+00 -0.8624319E-01
  0.1020408E+00  0.0000000E+00  0.6122449E-01  0.8775630E-06  0.0000000E+00 -0.8624260E-01
  0.1428571E+00  0.0000000E+00  0.6122449E-01  0.1210148E-05  0.0000000E+00 -0.8624172E-01
  0.1836735E+00  0.0000000E+00  0.6122449E-01  0.1523268E-05  0.0000000E+00 -0.8624057E-01
  0.2244898E+00  0.0000000E+00  0.6122449E-01  0.1811664E-05  0.0000000E+00 -0.8623917E-01
  0.2653061E+00  0.0000000E+00  0.6122449E-01  0.2070933E-05  0.0000000E+00 -0.8623753E-01
  0.3061225E+00  0.0000000E+00  0.6122449E-01  0.2296564E-05  0.0000000E+00 -0.8623569E-01
  0.3469388E+00  0.0000000E+00  0.6122449E-01  0.2484509E-05  0.0000000E+00 -0.8623368E-01
  0.3877551E+00  0.0000000E+00  0.6122449E-01  0.2631457E-05  0.0000000E+00 -0.8623153E-01
  0.4285714E+00  0.0000000E+00  0.6122449E-01  0.2734744E-05  0.0000000E+00 -0.8622927E-01
  0.4693878E+00  0.0000000E+00  0.6122449E-01  0.2792290E-05  0.0000000E+00 -0.8622694E-01
  0.5102041E+00  0.0000000E+00  0.6122449E-01  0.2802659E-05  0.0000000E+00 -0.8622459E-01
  0.5510204E+00  0.0000000E+00  0.6122449E-01  0.2765156E-05  0.0000000E+00 -0.8622224E-01
  0.5918368E+00  0.0000000E+00  0.6122449E-01  0.2679898E-05  0.0000000E+00 -0.8621995E-01
  0.6326531E+00  0.0000000E+00  0.6122449E-01  0.2547849E-05  0.0000000E+00 -0.8621775E-01
  0.6734694E+00  0.0000000E+00  0.6122449E-01  0.2370818E-05  0.0000000E+00 -0.8621568E-01
  0.7142857E+00  0.0000000E+00  0.6122449E-01  0.2151439E-05  0.0000000E+00 -0.8621377E-01
  0.7551020E+00  0.0000000E+00  0.6122449E-01  0.1893142E-05  0.0000000E+00 -0.8621207E-01
  0.7959183E+00  0.0000000E+00  0.6122449E-01  0.1600119E-05  0.0000000E+00 -0.8621060E-01
  0.8367347E+00  0.0000000E+00  0.6122449E-01  0.1277271E-05  0.0000000E+00 -0.8620938E-01
  0.8775510E+00  0.0000000E+00  0.6122449E-01  0.9301211E-06  0.0000000E+00 -0.8620845E-01
  0.9183673E+00  0.0000000E+00  0.6122449E-01  0.5647076E-06  0.0000000E+00 -0.8620782E-01
  0.9591837E+00  0.0000000E+00  0.6122449E-01  0.1875119E-06  0.0000000E+00 -0.8620750E-01
  0.1000000E+01  0.0000000E+00  0.6122449E-01 -0.1950970E-06  0.0000000E+00 -0.8620751E-01
  0.1040816E+01  0.0000000E+00  0.6122449E-01 -0.5762103E-06  0.0000000E+00 -0.8620783E-01
  0.1081633E+01  0.0000000E+00  0.6122449E-01 -0.9491408E-06  0.0000000E+00 -0.8620847E-01
  0.1122449E+01  0.0000000E+00  0.6122449E-01 -0.1308001E-05  0.0000000E+00 -0.8620942E-01
  0.1163265E+01  0.0000000E+00  0.6122449E-01 -0.1646095E-05  0.0000000E+00 -0.8621066E-01
  0.1204082E+01  0.0000000E+00  0.6122449E-01 -0.1957260E-05  0.0000000E+00 -0.8621218E-01
  0.1244898E+01  0.0000000E+00  0.6122449E-01 -0.2236669E-05  0.0000000E+00 -0.8621395E-01
  0.1285714E+01  0.0000000E+00  0.6122449E-01 -0.2479517E-05  0.0000000E+00 -0.8621593E-01
  0.1326531E+01  0.0000000E+00  0.6122449E-01 -0.2681732E-05  0.0000000E+00 -0.8621810E-01
  0.1367347E+01  0.0000000E+00  0.6122449E-01 -0.2840271E-05  0.0000000E+00 -0.8622043E-01
  0.1408163E+01  0.0000000E+00  0.6122449E-01 -0.2952945E-05  0.0000000E+00 -0.8622286E-01
  0.1448980E+01  0.0000000E+00  0.6122449E-01 -0.3018286E-05  0.0000000E+00 -0.8622538E-01
  0.1489796E+01  0.0000000E+00  0.6122449E-01 -0.3035542E-05  0.0000000E+00 -0.8622793E-01
  0.1530612E+01  0.0000000E+00  0.6122449E-01 -0.3004738E-05  0.0000000E+00 -0.8623047E-01
  0.1571429E+01  0.0000000E+00  0.6122449E-01 -0.2926692E-05  0.0000000E+00 -0.8623296E-01
  0.1612245E+01  0.0000000E+00  0.6122449E-01 -0.2802991E-05  0.0000000E+00 -0.8623537E-01
  0.1653061E+01  0.0000000E+00  0.6122449E-01 -0.2635925E-05  0.0000000E+00 -0.8623766E-01
  0.1693878E+01  0.0000000E+00  0.6122449E-01 -0.2428410E-05  0.0000000E+00 -0.8623979E-01
  0.1734694E+01  0.0000000E+00  0.6122449E-01 -0.2183910E-05  0.0000000E+00 -0.8624173E-01
  0.1775510E+01  0.0000000E+00  0.6122449E-01 -0.1906373E-05  0.0000000E+00 -0.8624345E-01
  0.1816326E+01  0.0000000E+00  0.6122449E-01 -0.1600175E-05  0.0000000E+00 -0.8624493E-01
  0.1857143E+01  0.0000000E+00  0.6122449E-01 -0.1270069E-05  0.0000000E+00 -0.8624613E-01
  0.1897959E+01  0.0000000E+00  0.6122449E-01 -0.9211342E-06  0.0000000E+00 -0.8624706E-01
  0.1938776E+01  0.0000000E+00  0.6122449E-01 -0.5587357E-06  0.0000000E+00 -0.8624768E-01
  0.1989796E+01  0.0000000E+00  0.6122449E-01 -0.1885444E-06  0.0000000E+00 -0.8624799E-01
  0.2040816E-01  0.0000000E+00  0.1020408E+00  0.2655562E-06  0.0000000E+00 -0.8624391E-01
  0.6122449E-01  0.0000000E+00  0.1020408E+00  0.7976308E-06  0.0000000E+00 -0.8624361E-01
  0.1020408E+00  0.0000000E+00  0.1020408E+00  0.1318265E-05  0.0000000E+00 -0.8624300E-01
  0.1428571E+00  0.0000000E+00  0.1020408E+00  0.1817594E-05  0.0000000E+00 -0.8624210E-01
  0.1836735E+00  0.0000000E+00  0.1020408E+00  0.2287890E-05  0.0000000E+00 -0.8624092E-01
  0.2244898E+00  0.0000000E+00  0.1020408E+00  0.2721237E-05  0.0000000E+00 -0.8623948E-01
  0.2653061E+00  0.0000000E+00  0.1020408E+00  0.3110830E-05  0.0000000E+00 -0.8623781E-01
  0.3061225E+00  0.0000000E+00  0.1020408E+00  0.3449952E-05  0.0000000E+00 -0.8623593E-01
  0.3469388E+00  0.0000000E+00  0.1020408E+00  0.3732594E-05  0.0000000E+00 -0.8623386E-01
  0.3877551E+00  0.0000000E+00  0.1020408E+00  0.3953760E-05  0.0000000E+00 -0.8623166E-01
  0.4285714E+00  0.0000000E+00  0.1020408E+00  0.4109391E-05  0.0000000E+00 -0.8622934E-01
  0.4693878E+00  0.0000000E+00  0.1020408E+00  0.4196320E-05  0.0000000E+00 -0.8622696E-01
  0.5102041E+00  0.0000000E+00  0.1020408E+00  0.4212365E-05  0.0000000E+00 -0.8622454E-01
  0.5510204E+00  0.0000000E+00  0.1020408E+00  0.4156463E-05  0.0000000E+00 -0.8622213E-01
  0.5918368E+00  0.0000000E+00  0.1020408E+00  0.4028775E-05  0.0000000E+00 -0.8621978E-01
  0.6326531E+00  0.0000000E+00  0.1020408E+00  0.3830729E-05  0.0000000E+00 -0.8621752E-01
  0.6734694E+00  0.0000000E+00  0.1020408E+00  0.3565021E-05  0.0000000E+00 -0.8621539E-01
  0.7142857E+00  0.0000000E+00  0.1020408E+00  0.3235587E-05  0.0000000E+00 -0.8621344E-01
  0.7551020E+00  0.0000000E+00  0.1020408E+00  0.2847572E-05  0.0000000E+00 -0.8621169E-01
  0.7959183E+00  0.0000000E+00  0.1020408E+00  0.2407273E-05  0.0000000E+00 -0.8621017E-01
  0.8367347E+00  0.0000000E+00  0.1020408E+00  0.1922062E-05  0.0000000E+00 -0.8620893E-01
  0.8775510E+00  0.0000000E+00  0.1020408E+00  0.1400261E-05  0.0000000E+00 -0.8620797E-01
  0.9183673E+00  0.0000000E+00  0.1020408E+00  0.8509729E-06  0.0000000E+00 -0.8620732E-01
  0.9591837E+00  0.0000000E+00  0.1020408E+00  0.2838756E-06  0.0000000E+00 -0.8620699E-01
  0.1000000E+01  0.0000000E+00  0.1020408E+00 -0.2912356E-06  0.0000000E+00 -0.8620699E-01
  0.1040816E+01  0.0000000E+00  0.1020408E+00 -0.8642946E-06  0.0000000E+00 -0.8620732E-01
  0.1081633E+01  0.0000000E+00  0.1020408E+00 -0.1425085E-05  0.0000000E+00 -0.8620798E-01
  0.1122449E+01  0.0000000E+00  0.1020408E+00 -0.1964415E-05  0.0000000E+00 -0.8620895E-01
  0.1163265E+01  0.0000000E+00  0.1020408E+00 -0.2472554E-05  0.0000000E+00 -0.8621022E-01
  0.1204082E+01  0.0000000E+00  0.1020408E+00 -0.2940248E-05  0.0000000E+00 -0.8621177E-01
  0.1244898E+01  0.0000000E+00  0.1020408E+00 -0.3360010E-05  0.0000000E+00 -0.8621358E-01
  0.1285714E+01  0.0000000E+00  0.1020408E+00 -0.3724708E-05  0.0000000E+00 -0.8621562E-01
  0.1326531E+01  0.0000000E+00  0.1020408E+00 -0.4028328E-05  0.0000000E+00 -0.8621784E-01
  0.1367347E+01  0.0000000E+00  0.1020408E+00 -0.4266299E-05  0.0000000E+00 -0.8622022E-01
  0.1408163E+01  0.0000000E+00  0.1020408E+00 -0.4435306E-05  0.0000000E+00 -0.8622272E-01
  0.1448980E+01  0.0000000E+00  0.1020408E+00 -0.4533137E-05  0.0000000E+00 -0.8622529E-01
  0.1489796E+01  0.0000000E+00  0.1020408E+00 -0.4558690E-05  0.0000000E+00 -0.8622790E-01
  0.1530612E+01  0.0000000E+00  0.1020408E+00 -0.4512041E-05  0.0000000E+00 -0.8623051E-01
  0.1571429E+01  0.0000000E+00  0.1020408E+00 -0.4394462E-05  0.0000000E+00 -0.8623306E-01
  0.1612245E+01  0.0000000E+00  0.1020408E+00 -0.4208367E-05  0.0000000E+00 -0.8623553E-01
  0.1653061E+01  0.0000000E+00  0.1020408E+00 -0.3957218E-05  0.0000000E+00 -0.8623787E-01
  0.1693878E+01  0.0000000E+00  0.1020408E+00 -0.3645405E-05  0.0000000E+00 -0.8624005E-01
  0.1734694E+01  0.0000000E+00  0.1020408E+00 -0.3278138E-05  0.0000000E+00 -0.8624203E-01
  0.1775510E+01  0.0000000E+00  0.1020408E+00 -0.2861349E-05  0.0000000E+00 -0.8624379E-01
  0.1816326E+01  0.0000000E+00  0.1020408E+00 -0.2401604E-05  0.0000000E+00 -0.8624530E-01
  0.1857143E+01  0.0000000E+00  0.1020408E+00 -0.1906025E-05  0.0000000E+00 -0.8624653E-01
  0.1897959E+01  0.0000000E+00  0.1020408E+00 -0.1382210E-05  0.0000000E+00 -0.8624748E-01
  0.1938776E+01  0.0000000E+00  0.1020408E+00 -0.8381596E-06  0.0000000E+00 -0.8624811E-01
  0.1989796E+01  0.0000000E+00  0.1020408E+00 -0.2821902E-06  0.0000000E+00 -0.8624843E-01
  0.2040816E-01  0.0000000E+00  0.1428571E+00  0.3439438E-06  0.0000000E+00 -0.8624448E-01
  0.6122449E-01  0.0000000E+00  0.1428571E+00  0.1031643E-05  0.0000000E+00 -0.8624417E-01
  0.1020408E+00  0.0000000E+00  0.1428571E+00  0.1704536E-05  0.0000000E+00 -0.8624354E-01
  0.1428571E+00  0.0000000E+00  0.1428571E+00  0.2350004E-05  0.0000000E+00 -0.8624261E-01
  0.1836735E+00  0.0000000E+00  0.1428571E+00  0.2958115E-05  0.0000000E+00 -0.8624139E-01
  0.2244898E+00  0.0000000E+00  0.1428571E+00  0.3518677E-05  0.0000000E+00 -0.8623991E-01
  0.2653061E+00  0.0000000E+00  0.1428571E+00  0.4022773E-05  0.0000000E+00 -0.8623818E-01
  0.3061225E+00  0.0000000E+00  0.1428571E+00  0.4461760E-05  0.0000000E+00 -0.8623624E-01
  0.3469388E+00  0.0000000E+00  0.1428571E+00  0.4827905E-05  0.0000000E+00 -0.8623411E-01
  0.3877551E+00  0.0000000E+00  0.1428571E+00  0.5114708E-05  0.0000000E+00 -0.8623182E-01
  0.4285714E+00  0.0000000E+00  0.1428571E+00  0.5316849E-05  0.0000000E+00 -0.8622943E-01
  0.4693878E+00  0.0000000E+00  0.1428571E+00  0.5430170E-05  0.0000000E+00 -0.8622696E-01
  0.5102041E+00  0.0000000E+00  0.1428571E+00  0.5451806E-05  0.0000000E+00 -0.8622446E-01
  0.5510204E+00  0.0000000E+00  0.1428571E+00  0.5380343E-05  0.0000000E+00 -0.8622198E-01
  0.5918368E+00  0.0000000E+00  0.1428571E+00  0.5215951E-05  0.0000000E+00 -0.8621954E-01
  0.6326531E+00  0.0000000E+00  0.1428571E+00  0.4960433E-05  0.0000000E+00 -0.8621720E-01
  0.6734694E+00  0.0000000E+00  0.1428571E+00  0.4617235E-05  0.0000000E+00 -0.8621500E-01
  0.7142857E+00  0.0000000E+00  0.1428571E+00  0.4191416E-05  0.0000000E+00 -0.8621297E-01
  0.7551020E+00  0.0000000E+00  0.1428571E+00  0.3689614E-05  0.0000000E+00 -0.8621116E-01
  0.7959183E+00  0.0000000E+00  0.1428571E+00  0.3119976E-05  0.0000000E+00 -0.8620959E-01
  0.8367347E+00  0.0000000E+00  0.1428571E+00  0.2492045E-05  0.0000000E+00 -0.8620829E-01
  0.8775510E+00  0.0000000E+00  0.1428571E+00  0.1816611E-05  0.0000000E+00 -0.8620730E-01
  0.9183673E+00  0.0000000E+00  0.1428571E+00  0.1105544E-05  0.0000000E+00 -0.8620662E-01
  0.9591837E+00  0.0000000E+00  0.1428571E+00  0.3712466E-06  0.0000000E+00 -0.8620628E-01
  0.1000000E+01  0.0000000E+00  0.1428571E+00 -0.3733970E-06  0.0000000E+00 -0.8620627E-01
  0.1040816E+01  0.0000000E+00  0.1428571E+00 -0.1115405E-05  0.0000000E+00 -0.8620661E-01
  0.1081633E+01  0.0000000E+00  0.1428571E+00 -0.1841587E-05  0.0000000E+00 -0.8620729E-01
  0.1122449E+01  0.0000000E+00  0.1428571E+00 -0.2539743E-05  0.0000000E+00 -0.8620829E-01
  0.1163265E+01  0.0000000E+00  0.1428571E+00 -0.3197393E-05  0.0000000E+00 -0.8620961E-01
  0.1204082E+01  0.0000000E+00  0.1428571E+00 -0.3802617E-05  0.0000000E+00 -0.8621121E-01
  0.1244898E+01  0.0000000E+00  0.1428571E+00 -0.4345578E-05  0.0000000E+00 -0.8621308E-01
  0.1285714E+01  0.0000000E+00  0.1428571E+00 -0.4817114E-05  0.0000000E+00 -0.8621518E-01
  0.1326531E+01  0.0000000E+00  0.1428571E+00 -0.5209523E-05  0.0000000E+00 -0.8621748E-01
  0.1367347E+01  0.0000000E+00  0.1428571E+00 -0.5516900E-05  0.0000000E+00 -0.8621994E-01
  0.1408163E+01  0.0000000E+00  0.1428571E+00 -0.5734949E-05  0.0000000E+00 -0.8622252E-01
  0.1448980E+01  0.0000000E+00  0.1428571E+00 -0.5860828E-05  0.0000000E+00 -0.8622517E-01
  0.1489796E+01  0.0000000E+00  0.1428571E+00 -0.5893168E-05  0.0000000E+00 -0.8622787E-01
  0.1530612E+01  0.0000000E+00  0.1428571E+00 -0.5832135E-05  0.0000000E+00 -0.8623055E-01
  0.1571429E+01  0.0000000E+00  0.1428571E+00 -0.5679437E-05  0.0000000E+00 -0.8623319E-01
  0.1612245E+01  0.0000000E+00  0.1428571E+00 -0.5438252E-05  0.0000000E+00 -0.8623573E-01
  0.1653061E+01  0.0000000E+00  0.1428571E+00 -0.5113096E-05  0.0000000E+00 -0.8623814E-01
  0.1693878E+01  0.0000000E+00  0.1428571E+00 -0.4709674E-05  0.0000000E+00 -0.8624039E-01
  0.1734694E+01  0.0000000E+00  0.1428571E+00 -0.4234739E-05  0.0000000E+00 -0.8624244E-01
  0.1775510E+01  0.0000000E+00  0.1428571E+00 -0.3695963E-05  0.0000000E+00 -0.8624425E-01
  0.1816326E+01  0.0000000E+00  0.1428571E+00 -0.3101834E-05  0.0000000E+00 -0.8624580E-01
  0.1857143E+01  0.0000000E+00  0.1428571E+00 -0.2461535E-05  0.0000000E+00 -0.8624707E-01
  0.1897959E+01  0.0000000E+00  0.1428571E+00 -0.1784839E-05  0.0000000E+00 -0.8624804E-01
  0.1938776E+01  0.0000000E+00  0.1428571E+00 -0.1082057E-05  0.0000000E+00 -0.8624870E-01
  0.1989796E+01  0.0000000E+00  0.1428571E+00 -0.3637744E-06  0.0000000E+00 -0.8624903E-01
  0.2040816E-01  0.0000000E+00  0.1836735E+00  0.4156637E-06  0.0000000E+00 -0.8624518E-01
  0.6122449E-01  0.0000000E+00  0.1836735E+00  0.1245611E-05  0.0000000E+00 -0.8624485E-01
  0.1020408E+00  0.0000000E+00  0.1836735E+00  0.2057627E-05  0.0000000E+00 -0.8624420E-01
  0.1428571E+00  0.0000000E+00  0.1836735E+00  0.2836730E-05  0.0000000E+00 -0.8624323E-01
  0.1836735E+00  0.0000000E+00  0.1836735E+00  0.3570954E-05  0.0000000E+00 -0.8624197E-01
  0.2244898E+00  0.0000000E+00  0.1836735E+00  0.4248065E-05  0.0000000E+00 -0.8624043E-01
  0.2653061E+00  0.0000000E+00  0.1836735E+00  0.4857233E-05  0.0000000E+00 -0.8623863E-01
  0.3061225E+00  0.0000000E+00  0.1836735E+00  0.5388052E-05  0.0000000E+00 -0.8623661E-01
  0.3469388E+00  0.0000000E+00  0.1836735E+00  0.5831191E-05  0.0000000E+00 -0.8623440E-01
  0.3877551E+00  0.0000000E+00  0.1836735E+00  0.6178744E-05  0.0000000E+00 -0.8623203E-01
  0.4285714E+00  0.0000000E+00  0.1836735E+00  0.6424203E-05  0.0000000E+00 -0.8622953E-01
  0.4693878E+00  0.0000000E+00  0.1836735E+00  0.6562466E-05  0.0000000E+00 -0.8622697E-01
  0.5102041E+00  0.0000000E+00  0.1836735E+00  0.6590000E-05  0.0000000E+00 -0.8622437E-01
  0.5510204E+00  0.0000000E+00  0.1836735E+00  0.6505029E-05  0.0000000E+00 -0.8622177E-01
  0.5918368E+00  0.0000000E+00  0.1836735E+00  0.6307690E-05  0.0000000E+00 -0.8621924E-01
  0.6326531E+00  0.0000000E+00  0.1836735E+00  0.6000092E-05  0.0000000E+00 -0.8621680E-01
  0.6734694E+00  0.0000000E+00  0.1836735E+00  0.5586330E-05  0.0000000E+00 -0.8621450E-01
  0.7142857E+00  0.0000000E+00  0.1836735E+00  0.5072470E-05  0.0000000E+00 -0.8621238E-01
  0.7551020E+00  0.0000000E+00  0.1836735E+00  0.4466501E-05  0.0000000E+00 -0.8621049E-01
  0.7959183E+00  0.0000000E+00  0.1836735E+00  0.3778265E-05  0.0000000E+00 -0.8620885E-01
  0.8367347E+00  0.0000000E+00  0.1836735E+00  0.3019302E-05  0.0000000E+00 -0.8620750E-01
  0.8775510E+00  0.0000000E+00  0.1836735E+00  0.2202669E-05  0.0000000E+00 -0.8620645E-01
  0.9183673E+00  0.0000000E+00  0.1836735E+00  0.1342815E-05  0.0000000E+00 -0.8620575E-01
  0.9591837E+00  0.0000000E+00  0.1836735E+00  0.4547085E-06  0.0000000E+00 -0.8620538E-01
  0.1000000E+01  0.0000000E+00  0.1836735E+00 -0.4459825E-06  0.0000000E+00 -0.8620538E-01
  0.1040816E+01  0.0000000E+00  0.1836735E+00 -0.1343463E-05  0.0000000E+00 -0.8620572E-01
  0.1081633E+01  0.0000000E+00  0.1836735E+00 -0.2221783E-05  0.0000000E+00 -0.8620642E-01
  0.1122449E+01  0.0000000E+00  0.1836735E+00 -0.3065973E-05  0.0000000E+00 -0.8620747E-01
  0.1163265E+01  0.0000000E+00  0.1836735E+00 -0.3860963E-05  0.0000000E+00 -0.8620883E-01
  0.1204082E+01  0.0000000E+00  0.1836735E+00 -0.4592389E-05  0.0000000E+00 -0.8621050E-01
  0.1244898E+01  0.0000000E+00  0.1836735E+00 -0.5248266E-05  0.0000000E+00 -0.8621244E-01
  0.1285714E+01  0.0000000E+00  0.1836735E+00 -0.5817569E-05  0.0000000E+00 -0.8621463E-01
  0.1326531E+01  0.0000000E+00  0.1836735E+00 -0.6291052E-05  0.0000000E+00 -0.8621702E-01
  0.1367347E+01  0.0000000E+00  0.1836735E+00 -0.6661602E-05  0.0000000E+00 -0.8621957E-01
  0.1408163E+01  0.0000000E+00  0.1836735E+00 -0.6924051E-05  0.0000000E+00 -0.8622225E-01
  0.1448980E+01  0.0000000E+00  0.1836735E+00 -0.7075020E-05  0.0000000E+00 -0.8622501E-01
  0.1489796E+01  0.0000000E+00  0.1836735E+00 -0.7112942E-05  0.0000000E+00 -0.8622781E-01
  0.1530612E+01  0.0000000E+00  0.1836735E+00 -0.7038117E-05  0.0000000E+00 -0.8623060E-01
  0.1571429E+01  0.0000000E+00  0.1836735E+00 -0.6852703E-05  0.0000000E+00 -0.8623333E-01
  0.1612245E+01  0.0000000E+00  0.1836735E+00 -0.6560620E-05  0.0000000E+00 -0.8623597E-01
  0.1653061E+01  0.0000000E+00  0.1836735E+00 -0.6167386E-05  0.0000000E+00 -0.8623848E-01
  0.1693878E+01  0.0000000E+00  0.1836735E+00 -0.5679936E-05  0.0000000E+00 -0.8624081E-01
  0.1734694E+01  0.0000000E+00  0.1836735E+00 -0.5106449E-05  0.0000000E+00 -0.8624293E-01
  0.1775510E+01  0.0000000E+00  0.1836735E+00 -0.4456202E-05  0.0000000E+00 -0.8624481E-01
  0.1816326E+01  0.0000000E+00  0.1836735E+00 -0.3739435E-05  0.0000000E+00 -0.8624642E-01
  0.1857143E+01  0.0000000E+00  0.1836735E+00 -0.2967202E-05  0.0000000E+00 -0.8624773E-01
  0.1897959E+01  0.0000000E+00  0.1836735E+00 -0.2151240E-05  0.0000000E+00 -0.8624874E-01
  0.1938776E+01  0.0000000E+00  0.1836735E+00 -0.1303943E-05  0.0000000E+00 -0.8624942E-01
  0.1989796E+01  0.0000000E+00  0.1836735E+00 -0.4379609E-06  0.0000000E+00 -0.8624976E-01
  0.2040816E-01  0.0000000E+00  0.2244898E+00  0.4832253E-06  0.0000000E+00 -0.8624599E-01
  0.6122449E-01  0.0000000E+00  0.2244898E+00  0.1447116E-05  0.0000000E+00 -0.8624565E-01
  0.1020408E+00  0.0000000E+00  0.2244898E+00  0.2390124E-05  0.0000000E+00 -0.8624497E-01
  0.1428571E+00  0.0000000E+00  0.2244898E+00  0.3295157E-05  0.0000000E+00 -0.8624396E-01
  0.1836735E+00  0.0000000E+00  0.2244898E+00  0.4148349E-05  0.0000000E+00 -0.8624265E-01
  0.2244898E+00  0.0000000E+00  0.2244898E+00  0.4935568E-05  0.0000000E+00 -0.8624104E-01
  0.2653061E+00  0.0000000E+00  0.2244898E+00  0.5644197E-05  0.0000000E+00 -0.8623916E-01
  0.3061225E+00  0.0000000E+00  0.2244898E+00  0.6262164E-05  0.0000000E+00 -0.8623705E-01
  0.3469388E+00  0.0000000E+00  0.2244898E+00  0.6778611E-05  0.0000000E+00 -0.8623474E-01
  0.3877551E+00  0.0000000E+00  0.2244898E+00  0.7184278E-05  0.0000000E+00 -0.8623226E-01
  0.4285714E+00  0.0000000E+00  0.2244898E+00  0.7471494E-05  0.0000000E+00 -0.8622965E-01
  0.4693878E+00  0.0000000E+00  0.2244898E+00  0.7634223E-05  0.0000000E+00 -0.8622696E-01
  0.5102041E+00  0.0000000E+00  0.2244898E+00  0.7668251E-05  0.0000000E+00 -0.8622424E-01
  0.5510204E+00  0.0000000E+00  0.2244898E+00  0.7571415E-05  0.0000000E+00 -0.8622153E-01
  0.5918368E+00  0.0000000E+00  0.2244898E+00  0.7343764E-05  0.0000000E+00 -0.8621887E-01
  0.6326531E+00  0.0000000E+00  0.2244898E+00  0.6987649E-05  0.0000000E+00 -0.8621631E-01
  0.6734694E+00  0.0000000E+00  0.2244898E+00  0.6507739E-05  0.0000000E+00 -0.8621390E-01
  0.7142857E+00  0.0000000E+00  0.2244898E+00  0.5911018E-05  0.0000000E+00 -0.8621168E-01
  0.7551020E+00  0.0000000E+00  0.2244898E+00  0.5206736E-05  0.0000000E+00 -0.8620969E-01
  0.7959183E+00  0.0000000E+00  0.2244898E+00  0.4406330E-05  0.0000000E+00 -0.8620797E-01
  0.8367347E+00  0.0000000E+00  0.2244898E+00  0.3523239E-05  0.0000000E+00 -0.8620654E-01
  0.8775510E+00  0.0000000E+00  0.2244898E+00  0.2572694E-05  0.0000000E+00 -0.8620545E-01
  0.9183673E+00  0.0000000E+00  0.2244898E+00  0.1571573E-05  0.0000000E+00 -0.8620470E-01
  0.9591837E+00  0.0000000E+00  0.2244898E+00  0.5373784E-06  0.0000000E+00 -0.8620432E-01
  0.1000000E+01  0.0000000E+00  0.2244898E+00 -0.5115748E-06  0.0000000E+00 -0.8620430E-01
  0.1040816E+01  0.0000000E+00  0.2244898E+00 -0.1556767E-05  0.0000000E+00 -0.8620466E-01
  0.1081633E+01  0.0000000E+00  0.2244898E+00 -0.2579551E-05  0.0000000E+00 -0.8620539E-01
  0.1122449E+01  0.0000000E+00  0.2244898E+00 -0.3562321E-05  0.0000000E+00 -0.8620648E-01
  0.1163265E+01  0.0000000E+00  0.2244898E+00 -0.4487509E-05  0.0000000E+00 -0.8620791E-01
  0.1204082E+01  0.0000000E+00  0.2244898E+00 -0.5338424E-05  0.0000000E+00 -0.8620965E-01
  0.1244898E+01  0.0000000E+00  0.2244898E+00 -0.6101037E-05  0.0000000E+00 -0.8621168E-01
  0.1285714E+01  0.0000000E+00  0.2244898E+00 -0.6762559E-05  0.0000000E+00 -0.8621397E-01
  0.1326531E+01  0.0000000E+00  0.2244898E+00 -0.7312296E-05  0.0000000E+00 -0.8621646E-01
  0.1367347E+01  0.0000000E+00  0.2244898E+00 -0.7742014E-05  0.0000000E+00 -0.8621913E-01
  0.1408163E+01  0.0000000E+00  0.2244898E+00 -0.8045757E-05  0.0000000E+00 -0.8622193E-01
  0.1448980E+01  0.0000000E+00  0.2244898E+00 -0.8219690E-05  0.0000000E+00 -0.8622482E-01
  0.1489796E+01  0.0000000E+00  0.2244898E+00 -0.8262115E-05  0.0000000E+00 -0.8622774E-01
  0.1530612E+01  0.0000000E+00  0.2244898E+00 -0.8173517E-05  0.0000000E+00 -0.8623065E-01
  0.1571429E+01  0.0000000E+00  0.2244898E+00 -0.7956537E-05  0.0000000E+00 -0.8623350E-01
  0.1612245E+01  0.0000000E+00  0.2244898E+00 -0.7615849E-05  0.0000000E+00 -0.8623625E-01
  0.1653061E+01  0.0000000E+00  0.2244898E+00 -0.7157957E-05  0.0000000E+00 -0.8623886E-01
  0.1693878E+01  0.0000000E+00  0.2244898E+00 -0.6590989E-05  0.0000000E+00 -0.8624129E-01
  0.1734694E+01  0.0000000E+00  0.2244898E+00 -0.5924494E-05  0.0000000E+00 -0.8624350E-01
  0.1775510E+01  0.0000000E+00  0.2244898E+00 -0.5169270E-05  0.0000000E+00 -0.8624546E-01
  0.1816326E+01  0.0000000E+00  0.2244898E+00 -0.4337203E-05  0.0000000E+00 -0.8624713E-01
  0.1857143E+01  0.0000000E+00  0.2244898E+00 -0.3441098E-05  0.0000000E+00 -0.8624850E-01
  0.1897959E+01  0.0000000E+00  0.2244898E+00 -0.2494523E-05  0.0000000E+00 -0.8624955E-01
  0.1938776E+01  0.0000000E+00  0.2244898E+00 -0.1511780E-05  0.0000000E+00 -0.8625025E-01
  0.1989796E+01  0.0000000E+00  0.2244898E+00 -0.5074346E-06  0.0000000E+00 -0.8625061E-01
  0.2040816E-01  0.0000000E+00  0.2653061E+00  0.5483558E-06  0.0000000E+00 -0.8624692E-01
  0.6122449E-01  0.0000000E+00  0.2653061E+00  0.1641345E-05  0.0000000E+00 -0.8624656E-01
  0.1020408E+00  0.0000000E+00  0.2653061E+00  0.2710633E-05  0.0000000E+00 -0.8624585E-01
  0.1428571E+00  0.0000000E+00  0.2653061E+00  0.3737185E-05  0.0000000E+00 -0.8624479E-01
  0.1836735E+00  0.0000000E+00  0.2653061E+00  0.4705325E-05  0.0000000E+00 -0.8624341E-01
  0.2244898E+00  0.0000000E+00  0.2653061E+00  0.5599122E-05  0.0000000E+00 -0.8624173E-01
  0.2653061E+00  0.0000000E+00  0.2653061E+00  0.6404245E-05  0.0000000E+00 -0.8623976E-01
  0.3061225E+00  0.0000000E+00  0.2653061E+00  0.7107005E-05  0.0000000E+00 -0.8623755E-01
  0.3469388E+00  0.0000000E+00  0.2653061E+00  0.7695057E-05  0.0000000E+00 -0.8623512E-01
  0.3877551E+00  0.0000000E+00  0.2653061E+00  0.8157796E-05  0.0000000E+00 -0.8623252E-01
  0.4285714E+00  0.0000000E+00  0.2653061E+00  0.8486386E-05  0.0000000E+00 -0.8622978E-01
  0.4693878E+00  0.0000000E+00  0.2653061E+00  0.8673835E-05  0.0000000E+00 -0.8622696E-01
  0.5102041E+00  0.0000000E+00  0.2653061E+00  0.8715218E-05  0.0000000E+00 -0.8622409E-01
  0.5510204E+00  0.0000000E+00  0.2653061E+00  0.8607929E-05  0.0000000E+00 -0.8622124E-01
  0.5918368E+00  0.0000000E+00  0.2653061E+00  0.8351877E-05  0.0000000E+00 -0.8621844E-01
  0.6326531E+00  0.0000000E+00  0.2653061E+00  0.7949587E-05  0.0000000E+00 -0.8621575E-01
  0.6734694E+00  0.0000000E+00  0.2653061E+00  0.7406239E-05  0.0000000E+00 -0.8621321E-01
  0.7142857E+00  0.0000000E+00  0.2653061E+00  0.6729666E-05  0.0000000E+00 -0.8621087E-01
  0.7551020E+00  0.0000000E+00  0.2653061E+00  0.5930323E-05  0.0000000E+00 -0.8620877E-01
  0.7959183E+00  0.0000000E+00  0.2653061E+00  0.5021178E-05  0.0000000E+00 -0.8620695E-01
  0.8367347E+00  0.0000000E+00  0.2653061E+00  0.4017520E-05  0.0000000E+00 -0.8620544E-01
  0.8775510E+00  0.0000000E+00  0.2653061E+00  0.2936727E-05  0.0000000E+00 -0.8620428E-01
  0.9183673E+00  0.0000000E+00  0.2653061E+00  0.1798045E-05  0.0000000E+00 -0.8620349E-01
  0.9591837E+00  0.0000000E+00  0.2653061E+00  0.6215027E-06  0.0000000E+00 -0.8620308E-01
  0.1000000E+01  0.0000000E+00  0.2653061E+00 -0.5719504E-06  0.0000000E+00 -0.8620306E-01
  0.1040816E+01  0.0000000E+00  0.2653061E+00 -0.1761097E-05  0.0000000E+00 -0.8620344E-01
  0.1081633E+01  0.0000000E+00  0.2653061E+00 -0.2924599E-05  0.0000000E+00 -0.8620420E-01
  0.1122449E+01  0.0000000E+00  0.2653061E+00 -0.4042245E-05  0.0000000E+00 -0.8620534E-01
  0.1163265E+01  0.0000000E+00  0.2653061E+00 -0.5094006E-05  0.0000000E+00 -0.8620684E-01
  0.1204082E+01  0.0000000E+00  0.2653061E+00 -0.6060904E-05  0.0000000E+00 -0.8620867E-01
  0.1244898E+01  0.0000000E+00  0.2653061E+00 -0.6926913E-05  0.0000000E+00 -0.8621080E-01
  0.1285714E+01  0.0000000E+00  0.2653061E+00 -0.7677534E-05  0.0000000E+00 -0.8621320E-01
  0.1326531E+01  0.0000000E+00  0.2653061E+00 -0.8300680E-05  0.0000000E+00 -0.8621582E-01