title = "dataset feddes"
variables = "x", "y", "z", "vx", "vy", "vz"
zone t = "velocities, solution time =  1.500E+01 days        " i =   49, j =   49, k =    1,  f=point
  0.2040816E-01  0.0000000E+00  0.2040816E-01  0.1024270E-06  0.0000000E+00 -0.8616124E-01
  0.6122449E-01  0.0000000E+00  0.2040816E-01  0.3064729E-06  0.0000000E+00 -0.8616077E-01
  0.1020408E+00  0.0000000E+00  0.2040816E-01  0.5063841E-06  0.0000000E+00 -0.8615985E-01
  0.1428571E+00  0.0000000E+00  0.2040816E-01  0.6984791E-06  0.0000000E+00 -0.8615848E-01
  0.1836735E+00  0.0000000E+00  0.2040816E-01  0.8794037E-06  0.0000000E+00 -0.8615668E-01
  0.2244898E+00  0.0000000E+00  0.2040816E-01  0.1046519E-05  0.0000000E+00 -0.8615449E-01
  0.2653061E+00  0.0000000E+00  0.2040816E-01  0.1197317E-05  0.0000000E+00 -0.8615194E-01
  0.3061225E+00  0.0000000E+00  0.2040816E-01  0.1329158E-05  0.0000000E+00 -0.8614907E-01
  0.3469388E+00  0.0000000E+00  0.2040816E-01  0.1439840E-05  0.0000000E+00 -0.8614592E-01
  0.3877551E+00  0.0000000E+00  0.2040816E-01  0.1527495E-05  0.0000000E+00 -0.8614254E-01
  0.4285714E+00  0.0000000E+00  0.2040816E-01  0.1590513E-05  0.0000000E+00 -0.8613900E-01
  0.4693878E+00  0.0000000E+00  0.2040816E-01  0.1627626E-05  0.0000000E+00 -0.8613534E-01
  0.5102041E+00  0.0000000E+00  0.2040816E-01  0.1637984E-05  0.0000000E+00 -0.8613162E-01
  0.5510204E+00  0.0000000E+00  0.2040816E-01  0.1621175E-05  0.0000000E+00 -0.8612792E-01
  0.5918368E+00  0.0000000E+00  0.2040816E-01  0.1577227E-05  0.0000000E+00 -0.8612428E-01
  0.6326531E+00  0.0000000E+00  0.2040816E-01  0.1506616E-05  0.0000000E+00 -0.8612077E-01
  0.6734694E+00  0.0000000E+00  0.2040816E-01  0.1410276E-05  0.0000000E+00 -0.8611745E-01
  0.7142857E+00  0.0000000E+00  0.2040816E-01  0.1289610E-05  0.0000000E+00 -0.8611438E-01
  0.7551020E+00  0.0000000E+00  0.2040816E-01  0.1146478E-05  0.0000000E+00 -0.8611161E-01
  0.7959183E+00  0.0000000E+00  0.2040816E-01  0.9831841E-06  0.0000000E+00 -0.8610919E-01
  0.8367347E+00  0.0000000E+00  0.2040816E-01  0.8024326E-06  0.0000000E+00 -0.8610716E-01
  0.8775510E+00  0.0000000E+00  0.2040816E-01  0.6072874E-06  0.0000000E+00 -0.8610556E-01
  0.9183673E+00  0.0000000E+00  0.2040816E-01  0.4011194E-06  0.0000000E+00 -0.8610441E-01
  0.9591837E+00  0.0000000E+00  0.2040816E-01  0.1875507E-06  0.0000000E+00 -0.8610374E-01
  0.1000000E+01  0.0000000E+00  0.2040816E-01 -0.2967642E-07  0.0000000E+00 -0.8610356E-01
  0.1040816E+01  0.0000000E+00  0.2040816E-01 -0.2465131E-06  0.0000000E+00 -0.8610387E-01
  0.1081633E+01  0.0000000E+00  0.2040816E-01 -0.4595520E-06  0.0000000E+00 -0.8610468E-01
  0.1122449E+01  0.0000000E+00  0.2040816E-01 -0.6650261E-06  0.0000000E+00 -0.8610596E-01
  0.1163265E+01  0.0000000E+00  0.2040816E-01 -0.8588762E-06  0.0000000E+00 -0.8610769E-01
  0.1204082E+01  0.0000000E+00  0.2040816E-01 -0.1037973E-05  0.0000000E+00 -0.8610985E-01
  0.1244898E+01  0.0000000E+00  0.2040816E-01 -0.1199489E-05  0.0000000E+00 -0.8611239E-01
  0.1285714E+01  0.0000000E+00  0.2040816E-01 -0.1340527E-05  0.0000000E+00 -0.8611528E-01
  0.1326531E+01  0.0000000E+00  0.2040816E-01 -0.1458830E-05  0.0000000E+00 -0.8611846E-01
  0.1367347E+01  0.0000000E+00  0.2040816E-01 -0.1552638E-05  0.0000000E+00 -0.8612189E-01
  0.1408163E+01  0.0000000E+00  0.2040816E-01 -0.1620561E-05  0.0000000E+00 -0.8612550E-01
  0.1448980E+01  0.0000000E+00  0.2040816E-01 -0.1661655E-05  0.0000000E+00 -0.8612923E-01
  0.1489796E+01  0.0000000E+00  0.2040816E-01 -0.1675474E-05  0.0000000E+00 -0.8613303E-01
  0.1530612E+01  0.0000000E+00  0.2040816E-01 -0.1662055E-05  0.0000000E+00 -0.8613682E-01
  0.1571429E+01  0.0000000E+00  0.2040816E-01 -0.1621871E-05  0.0000000E+00 -0.8614056E-01
  0.1612245E+01  0.0000000E+00  0.2040816E-01 -0.1555794E-05  0.0000000E+00 -0.8614417E-01
  0.1653061E+01  0.0000000E+00  0.2040816E-01 -0.1465076E-05  0.0000000E+00 -0.8614761E-01
  0.1693878E+01  0.0000000E+00  0.2040816E-01 -0.1351322E-05  0.0000000E+00 -0.8615081E-01
  0.1734694E+01  0.0000000E+00  0.2040816E-01 -0.1216467E-05  0.0000000E+00 -0.8615373E-01
  0.1775510E+01  0.0000000E+00  0.2040816E-01 -0.1062737E-05  0.0000000E+00 -0.8615632E-01
  0.1816326E+01  0.0000000E+00  0.2040816E-01 -0.8926116E-06  0.0000000E+00 -0.8615855E-01
  0.1857143E+01  0.0000000E+00  0.2040816E-01 -0.7087814E-06  0.0000000E+00 -0.8616037E-01
  0.1897959E+01  0.0000000E+00  0.2040816E-01 -0.5141165E-06  0.0000000E+00 -0.8616176E-01
  0.1938776E+01  0.0000000E+00  0.2040816E-01 -0.3116449E-06  0.0000000E+00 -0.8616270E-01
  0.1989796E+01  0.0000000E+00  0.2040816E-01 -0.1045411E-06  0.0000000E+00 -0.8616317E-01
  0.2040816E-01  0.0000000E+00  0.6122449E-01  0.2809351E-06  0.0000000E+00 -0.8616164E-01
  0.6122449E-01  0.0000000E+00  0.6122449E-01  0.8402487E-06  0.0000000E+00 -0.8616117E-01
  0.1020408E+00  0.0000000E+00  0.6122449E-01  0.1387955E-05  0.0000000E+00 -0.8616023E-01
  0.1428571E+00  0.0000000E+00  0.6122449E-01  0.1914273E-05  0.0000000E+00 -0.8615884E-01
  0.1836735E+00  0.0000000E+00  0.6122449E-01  0.2410236E-05  0.0000000E+00 -0.8615702E-01
  0.2244898E+00  0.0000000E+00  0.6122449E-01  0.2868368E-05  0.0000000E+00 -0.8615480E-01
  0.2653061E+00  0.0000000E+00  0.6122449E-01  0.3281741E-05  0.0000000E+00 -0.8615221E-01
  0.3061225E+00  0.0000000E+00  0.6122449E-01  0.3643245E-05  0.0000000E+00 -0.8614930E-01
  0.3469388E+00  0.0000000E+00  0.6122449E-01  0.3946822E-05  0.0000000E+00 -0.8614611E-01
  0.3877551E+00  0.0000000E+00  0.6122449E-01  0.4187297E-05  0.0000000E+00 -0.8614268E-01
  0.4285714E+00  0.0000000E+00  0.6122449E-01  0.4360251E-05  0.0000000E+00 -0.8613909E-01
  0.4693878E+00  0.0000000E+00  0.6122449E-01  0.4462215E-05  0.0000000E+00 -0.8613537E-01
  0.5102041E+00  0.0000000E+00  0.6122449E-01  0.4490849E-05  0.0000000E+00 -0.8613161E-01
  0.5510204E+00  0.0000000E+00  0.6122449E-01  0.4445005E-05  0.0000000E+00 -0.8612784E-01
  0.5918368E+00  0.0000000E+00  0.6122449E-01  0.4324741E-05  0.0000000E+00 -0.8612415E-01
  0.6326531E+00  0.0000000E+00  0.6122449E-01  0.4131343E-05  0.0000000E+00 -0.8612059E-01
  0.6734694E+00  0.0000000E+00  0.6122449E-01  0.3867362E-05  0.0000000E+00 -0.8611723E-01
  0.7142857E+00  0.0000000E+00  0.6122449E-01  0.3536633E-05  0.0000000E+00 -0.8611411E-01
  0.7551020E+00  0.0000000E+00  0.6122449E-01  0.3144257E-05  0.0000000E+00 -0.8611130E-01
  0.7959183E+00  0.0000000E+00  0.6122449E-01  0.2696544E-05  0.0000000E+00 -0.8610884E-01
  0.8367347E+00  0.0000000E+00  0.6122449E-01  0.2200912E-05  0.0000000E+00 -0.8610677E-01
  0.8775510E+00  0.0000000E+00  0.6122449E-01  0.1665763E-05  0.0000000E+00 -0.8610514E-01
  0.9183673E+00  0.0000000E+00  0.6122449E-01  0.1100348E-05  0.0000000E+00 -0.8610398E-01
  0.9591837E+00  0.0000000E+00  0.6122449E-01  0.5147192E-06  0.0000000E+00 -0.8610330E-01
  0.1000000E+01  0.0000000E+00  0.6122449E-01 -0.8102936E-07  0.0000000E+00 -0.8610312E-01
  0.1040816E+01  0.0000000E+00  0.6122449E-01 -0.6759115E-06  0.0000000E+00 -0.8610343E-01
  0.1081633E+01  0.0000000E+00  0.6122449E-01 -0.1260109E-05  0.0000000E+00 -0.8610425E-01
  0.1122449E+01  0.0000000E+00  0.6122449E-01 -0.1823453E-05  0.0000000E+00 -0.8610555E-01
  0.1163265E+01  0.0000000E+00  0.6122449E-01 -0.2355118E-05  0.0000000E+00 -0.8610731E-01
  0.1204082E+01  0.0000000E+00  0.6122449E-01 -0.2846244E-05  0.0000000E+00 -0.8610950E-01
  0.1244898E+01  0.0000000E+00  0.6122449E-01 -0.3289017E-05  0.0000000E+00 -0.8611208E-01
  0.1285714E+01  0.0000000E+00  0.6122449E-01 -0.3675645E-05  0.0000000E+00 -0.8611501E-01
  0.1326531E+01  0.0000000E+00  0.6122449E-01 -0.3999926E-05  0.0000000E+00 -0.8611824E-01
  0.1367347E+01  0.0000000E+00  0.6122449E-01 -0.4256979E-05  0.0000000E+00 -0.8612172E-01
  0.1408163E+01  0.0000000E+00  0.6122449E-01 -0.4443010E-05  0.0000000E+00 -0.8612538E-01
  0.1448980E+01  0.0000000E+00  0.6122449E-01 -0.4555463E-05  0.0000000E+00 -0.8612917E-01
  0.1489796E+01  0.0000000E+00  0.6122449E-01 -0.4593141E-05  0.0000000E+00 -0.8613302E-01
  0.1530612E+01  0.0000000E+00  0.6122449E-01 -0.4556152E-05  0.0000000E+00 -0.8613687E-01
  0.1571429E+01  0.0000000E+00  0.6122449E-01 -0.4445797E-05  0.0000000E+00 -0.8614065E-01
  0.1612245E+01  0.0000000E+00  0.6122449E-01 -0.4264479E-05  0.0000000E+00 -0.8614432E-01
  0.1653061E+01  0.0000000E+00  0.6122449E-01 -0.4015639E-05  0.0000000E+00 -0.8614780E-01
  0.1693878E+01  0.0000000E+00  0.6122449E-01 -0.3703693E-05  0.0000000E+00 -0.8615105E-01
  0.1734694E+01  0.0000000E+00  0.6122449E-01 -0.3333953E-05  0.0000000E+00 -0.8615401E-01
  0.1775510E+01  0.0000000E+00  0.6122449E-01 -0.2912525E-05  0.0000000E+00 -0.8615664E-01
  0.1816326E+01  0.0000000E+00  0.6122449E-01 -0.2446201E-05  0.0000000E+00 -0.8615889E-01
  0.1857143E+01  0.0000000E+00  0.6122449E-01 -0.1942347E-05  0.0000000E+00 -0.8616074E-01
  0.1897959E+01  0.0000000E+00  0.6122449E-01 -0.1408817E-05  0.0000000E+00 -0.8616215E-01
  0.1938776E+01  0.0000000E+00  0.6122449E-01 -0.8539025E-06  0.0000000E+00 -0.8616310E-01
  0.1989796E+01  0.0000000E+00  0.6122449E-01 -0.2864022E-06  0.0000000E+00 -0.8616358E-01
  0.2040816E-01  0.0000000E+00  0.1020408E+00  0.4221057E-06  0.0000000E+00 -0.8616233E-01
  0.6122449E-01  0.0000000E+00  0.1020408E+00  0.1262018E-05  0.0000000E+00 -0.8616185E-01
  0.1020408E+00  0.0000000E+00  0.1020408E+00  0.2084107E-05  0.0000000E+00 -0.8616089E-01
  0.1428571E+00  0.0000000E+00  0.1020408E+00  0.2874113E-05  0.0000000E+00 -0.8615947E-01
  0.1836735E+00  0.0000000E+00  0.1020408E+00  0.3618967E-05  0.0000000E+00 -0.8615760E-01
  0.2244898E+00  0.0000000E+00  0.1020408E+00  0.4307147E-05  0.0000000E+00 -0.8615533E-01
  0.2653061E+00  0.0000000E+00  0.1020408E+00  0.4928137E-05  0.0000000E+00 -0.8615268E-01
  0.3061225E+00  0.0000000E+00  0.1020408E+00  0.5471434E-05  0.0000000E+00 -0.8614970E-01
  0.3469388E+00  0.0000000E+00  0.1020408E+00  0.5927901E-05  0.0000000E+00 -0.8614643E-01
  0.3877551E+00  0.0000000E+00  0.1020408E+00  0.6289679E-05  0.0000000E+00 -0.8614292E-01
  0.4285714E+00  0.0000000E+00  0.1020408E+00  0.6550108E-05  0.0000000E+00 -0.8613924E-01
  0.4693878E+00  0.0000000E+00  0.1020408E+00  0.6703967E-05  0.0000000E+00 -0.8613543E-01
  0.5102041E+00  0.0000000E+00  0.1020408E+00  0.6747711E-05  0.0000000E+00 -0.8613157E-01
  0.5510204E+00  0.0000000E+00  0.1020408E+00  0.6679560E-05  0.0000000E+00 -0.8612771E-01
  0.5918368E+00  0.0000000E+00  0.1020408E+00  0.6499543E-05  0.0000000E+00 -0.8612393E-01
  0.6326531E+00  0.0000000E+00  0.1020408E+00  0.6209545E-05  0.0000000E+00 -0.8612028E-01
  0.6734694E+00  0.0000000E+00  0.1020408E+00  0.5813363E-05  0.0000000E+00 -0.8611682E-01
  0.7142857E+00  0.0000000E+00  0.1020408E+00  0.5316739E-05  0.0000000E+00 -0.8611362E-01
  0.7551020E+00  0.0000000E+00  0.1020408E+00  0.4727323E-05  0.0000000E+00 -0.8611073E-01
  0.7959183E+00  0.0000000E+00  0.1020408E+00  0.4054588E-05  0.0000000E+00 -0.8610821E-01
  0.8367347E+00  0.0000000E+00  0.1020408E+00  0.3309684E-05  0.0000000E+00 -0.8610609E-01
  0.8775510E+00  0.0000000E+00  0.1020408E+00  0.2505256E-05  0.0000000E+00 -0.8610442E-01
  0.9183673E+00  0.0000000E+00  0.1020408E+00  0.1655225E-05  0.0000000E+00 -0.8610322E-01
  0.9591837E+00  0.0000000E+00  0.1020408E+00  0.7748074E-06  0.0000000E+00 -0.8610252E-01
  0.1000000E+01  0.0000000E+00  0.1020408E+00 -0.1208502E-06  0.0000000E+00 -0.8610233E-01
  0.1040816E+01  0.0000000E+00  0.1020408E+00 -0.1015511E-05  0.0000000E+00 -0.8610266E-01
  0.1081633E+01  0.0000000E+00  0.1020408E+00 -0.1893797E-05  0.0000000E+00 -0.8610349E-01
  0.1122449E+01  0.0000000E+00  0.1020408E+00 -0.2740463E-05  0.0000000E+00 -0.8610482E-01
  0.1163265E+01  0.0000000E+00  0.1020408E+00 -0.3539722E-05  0.0000000E+00 -0.8610663E-01
  0.1204082E+01  0.0000000E+00  0.1020408E+00 -0.4277909E-05  0.0000000E+00 -0.8610888E-01
  0.1244898E+01  0.0000000E+00  0.1020408E+00 -0.4943133E-05  0.0000000E+00 -0.8611152E-01
  0.1285714E+01  0.0000000E+00  0.1020408E+00 -0.5523906E-05  0.0000000E+00 -0.8611453E-01
  0.1326531E+01  0.0000000E+00  0.1020408E+00 -0.6010888E-05  0.0000000E+00 -0.8611785E-01
  0.1367347E+01  0.0000000E+00  0.1020408E+00 -0.6396685E-05  0.0000000E+00 -0.8612141E-01
  0.1408163E+01  0.0000000E+00  0.1020408E+00 -0.6675629E-05  0.0000000E+00 -0.8612516E-01
  0.1448980E+01  0.0000000E+00  0.1020408E+00 -0.6843959E-05  0.0000000E+00 -0.8612904E-01
  0.1489796E+01  0.0000000E+00  0.1020408E+00 -0.6899927E-05  0.0000000E+00 -0.8613299E-01
  0.1530612E+01  0.0000000E+00  0.1020408E+00 -0.6843729E-05  0.0000000E+00 -0.8613693E-01
  0.1571429E+01  0.0000000E+00  0.1020408E+00 -0.6677346E-05  0.0000000E+00 -0.8614081E-01
  0.1612245E+01  0.0000000E+00  0.1020408E+00 -0.6404425E-05  0.0000000E+00 -0.8614457E-01
  0.1653061E+01  0.0000000E+00  0.1020408E+00 -0.6030170E-05  0.0000000E+00 -0.8614813E-01
  0.1693878E+01  0.0000000E+00  0.1020408E+00 -0.5561253E-05  0.0000000E+00 -0.8615146E-01
  0.1734694E+01  0.0000000E+00  0.1020408E+00 -0.5005676E-05  0.0000000E+00 -0.8615449E-01
  0.1775510E+01  0.0000000E+00  0.1020408E+00 -0.4372624E-05  0.0000000E+00 -0.8615718E-01
  0.1816326E+01  0.0000000E+00  0.1020408E+00 -0.3672291E-05  0.0000000E+00 -0.8615948E-01
  0.1857143E+01  0.0000000E+00  0.1020408E+00 -0.2915720E-05  0.0000000E+00 -0.8616137E-01
  0.1897959E+01  0.0000000E+00  0.1020408E+00 -0.2114673E-05  0.0000000E+00 -0.8616281E-01
  0.1938776E+01  0.0000000E+00  0.1020408E+00 -0.1281580E-05  0.0000000E+00 -0.8616379E-01
  0.1989796E+01  0.0000000E+00  0.1020408E+00 -0.4297407E-06  0.0000000E+00 -0.8616428E-01
  0.2040816E-01  0.0000000E+00  0.1428571E+00  0.5456869E-06  0.0000000E+00 -0.8616326E-01
  0.6122449E-01  0.0000000E+00  0.1428571E+00  0.1631148E-05  0.0000000E+00 -0.8616276E-01
  0.1020408E+00  0.0000000E+00  0.1428571E+00  0.2693349E-05  0.0000000E+00 -0.8616177E-01
  0.1428571E+00  0.0000000E+00  0.1428571E+00  0.3714152E-05  0.0000000E+00 -0.8616031E-01
  0.1836735E+00  0.0000000E+00  0.1428571E+00  0.4676993E-05  0.0000000E+00 -0.8615839E-01
  0.2244898E+00  0.0000000E+00  0.1428571E+00  0.5566882E-05  0.0000000E+00 -0.8615604E-01
  0.2653061E+00  0.0000000E+00  0.1428571E+00  0.6370112E-05  0.0000000E+00 -0.8615331E-01
  0.3061225E+00  0.0000000E+00  0.1428571E+00  0.7073204E-05  0.0000000E+00 -0.8615023E-01
  0.3469388E+00  0.0000000E+00  0.1428571E+00  0.7664309E-05  0.0000000E+00 -0.8614686E-01
  0.3877551E+00  0.0000000E+00  0.1428571E+00  0.8133188E-05  0.0000000E+00 -0.8614324E-01
  0.4285714E+00  0.0000000E+00  0.1428571E+00  0.8471176E-05  0.0000000E+00 -0.8613943E-01
  0.4693878E+00  0.0000000E+00  0.1428571E+00  0.8671477E-05  0.0000000E+00 -0.8613550E-01
  0.5102041E+00  0.0000000E+00  0.1428571E+00  0.8729431E-05  0.0000000E+00 -0.8613151E-01
  0.5510204E+00  0.0000000E+00  0.1428571E+00  0.8642639E-05  0.0000000E+00 -0.8612753E-01
  0.5918368E+00  0.0000000E+00  0.1428571E+00  0.8411039E-05  0.0000000E+00 -0.8612361E-01
  0.6326531E+00  0.0000000E+00  0.1428571E+00  0.8036987E-05  0.0000000E+00 -0.8611983E-01
  0.6734694E+00  0.0000000E+00  0.1428571E+00  0.7525331E-05  0.0000000E+00 -0.8611626E-01
  0.7142857E+00  0.0000000E+00  0.1428571E+00  0.6883451E-05  0.0000000E+00 -0.8611295E-01
  0.7551020E+00  0.0000000E+00  0.1428571E+00  0.6121217E-05  0.0000000E+00 -0.8610996E-01
  0.7959183E+00  0.0000000E+00  0.1428571E+00  0.5250870E-05  0.0000000E+00 -0.8610734E-01
  0.8367347E+00  0.0000000E+00  0.1428571E+00  0.4286837E-05  0.0000000E+00 -0.8610515E-01
  0.8775510E+00  0.0000000E+00  0.1428571E+00  0.3245510E-05  0.0000000E+00 -0.8610342E-01
  0.9183673E+00  0.0000000E+00  0.1428571E+00  0.2145001E-05  0.0000000E+00 -0.8610218E-01
  0.9591837E+00  0.0000000E+00  0.1428571E+00  0.1004945E-05  0.0000000E+00 -0.8610145E-01
  0.1000000E+01  0.0000000E+00  0.1428571E+00 -0.1548093E-06  0.0000000E+00 -0.8610125E-01
  0.1040816E+01  0.0000000E+00  0.1428571E+00 -0.1313427E-05  0.0000000E+00 -0.8610159E-01
  0.1081633E+01  0.0000000E+00  0.1428571E+00 -0.2450708E-05  0.0000000E+00 -0.8610245E-01
  0.1122449E+01  0.0000000E+00  0.1428571E+00 -0.3546727E-05  0.0000000E+00 -0.8610383E-01
  0.1163265E+01  0.0000000E+00  0.1428571E+00 -0.4581348E-05  0.0000000E+00 -0.8610570E-01
  0.1204082E+01  0.0000000E+00  0.1428571E+00 -0.5536734E-05  0.0000000E+00 -0.8610802E-01
  0.1244898E+01  0.0000000E+00  0.1428571E+00 -0.6397322E-05  0.0000000E+00 -0.8611076E-01
  0.1285714E+01  0.0000000E+00  0.1428571E+00 -0.7148380E-05  0.0000000E+00 -0.8611387E-01
  0.1326531E+01  0.0000000E+00  0.1428571E+00 -0.7777824E-05  0.0000000E+00 -0.8611730E-01
  0.1367347E+01  0.0000000E+00  0.1428571E+00 -0.8276077E-05  0.0000000E+00 -0.8612098E-01
  0.1408163E+01  0.0000000E+00  0.1428571E+00 -0.8635874E-05  0.0000000E+00 -0.8612486E-01
  0.1448980E+01  0.0000000E+00  0.1428571E+00 -0.8852442E-05  0.0000000E+00 -0.8612887E-01
  0.1489796E+01  0.0000000E+00  0.1428571E+00 -0.8923612E-05  0.0000000E+00 -0.8613295E-01
  0.1530612E+01  0.0000000E+00  0.1428571E+00 -0.8849703E-05  0.0000000E+00 -0.8613702E-01
  0.1571429E+01  0.0000000E+00  0.1428571E+00 -0.8633351E-05  0.0000000E+00 -0.8614103E-01
  0.1612245E+01  0.0000000E+00  0.1428571E+00 -0.8279343E-05  0.0000000E+00 -0.8614490E-01
  0.1653061E+01  0.0000000E+00  0.1428571E+00 -0.7794485E-05  0.0000000E+00 -0.8614858E-01
  0.1693878E+01  0.0000000E+00  0.1428571E+00 -0.7187466E-05  0.0000000E+00 -0.8615201E-01
  0.1734694E+01  0.0000000E+00  0.1428571E+00 -0.6468680E-05  0.0000000E+00 -0.8615513E-01
  0.1775510E+01  0.0000000E+00  0.1428571E+00 -0.5650024E-05  0.0000000E+00 -0.8615791E-01
  0.1816326E+01  0.0000000E+00  0.1428571E+00 -0.4744675E-05  0.0000000E+00 -0.8616028E-01
  0.1857143E+01  0.0000000E+00  0.1428571E+00 -0.3766876E-05  0.0000000E+00 -0.8616223E-01
  0.1897959E+01  0.0000000E+00  0.1428571E+00 -0.2731780E-05  0.0000000E+00 -0.8616371E-01
  0.1938776E+01  0.0000000E+00  0.1428571E+00 -0.1655434E-05  0.0000000E+00 -0.8616472E-01
  0.1989796E+01  0.0000000E+00  0.1428571E+00 -0.5549637E-06  0.0000000E+00 -0.8616522E-01
  0.2040816E-01  0.0000000E+00  0.1836735E+00  0.6584711E-06  0.0000000E+00 -0.8616441E-01
  0.6122449E-01  0.0000000E+00  0.1836735E+00  0.1967895E-05  0.0000000E+00 -0.8616389E-01
  0.1020408E+00  0.0000000E+00  0.1836735E+00  0.3249147E-05  0.0000000E+00 -0.8616287E-01
  0.1428571E+00  0.0000000E+00  0.1836735E+00  0.4480645E-05  0.0000000E+00 -0.8616135E-01
  0.1836735E+00  0.0000000E+00  0.1836735E+00  0.5642650E-05  0.0000000E+00 -0.8615935E-01
  0.2244898E+00  0.0000000E+00  0.1836735E+00  0.6717069E-05  0.0000000E+00 -0.8615692E-01
  0.2653061E+00  0.0000000E+00  0.1836735E+00  0.7687276E-05  0.0000000E+00 -0.8615409E-01
  0.3061225E+00  0.0000000E+00  0.1836735E+00  0.8537062E-05  0.0000000E+00 -0.8615089E-01
  0.3469388E+00  0.0000000E+00  0.1836735E+00  0.9252084E-05  0.0000000E+00 -0.8614739E-01
  0.3877551E+00  0.0000000E+00  0.1836735E+00  0.9819890E-05  0.0000000E+00 -0.8614363E-01
  0.4285714E+00  0.0000000E+00  0.1836735E+00  0.1022994E-04  0.0000000E+00 -0.8613967E-01
  0.4693878E+00  0.0000000E+00  0.1836735E+00  0.1047393E-04  0.0000000E+00 -0.8613558E-01
  0.5102041E+00  0.0000000E+00  0.1836735E+00  0.1054610E-04  0.0000000E+00 -0.8613143E-01
  0.5510204E+00  0.0000000E+00  0.1836735E+00  0.1044341E-04  0.0000000E+00 -0.8612729E-01
  0.5918368E+00  0.0000000E+00  0.1836735E+00  0.1016565E-04  0.0000000E+00 -0.8612321E-01
  0.6326531E+00  0.0000000E+00  0.1836735E+00  0.9715522E-05  0.0000000E+00 -0.8611928E-01
  0.6734694E+00  0.0000000E+00  0.1836735E+00  0.9098786E-05  0.0000000E+00 -0.8611555E-01
  0.7142857E+00  0.0000000E+00  0.1836735E+00  0.8324276E-05  0.0000000E+00 -0.8611210E-01
  0.7551020E+00  0.0000000E+00  0.1836735E+00  0.7403868E-05  0.0000000E+00 -0.8610899E-01
  0.7959183E+00  0.0000000E+00  0.1836735E+00  0.6352336E-05  0.0000000E+00 -0.8610626E-01
  0.8367347E+00  0.0000000E+00  0.1836735E+00  0.5187116E-05  0.0000000E+00 -0.8610397E-01
  0.8775510E+00  0.0000000E+00  0.1836735E+00  0.3928030E-05  0.0000000E+00 -0.8610216E-01
  0.9183673E+00  0.0000000E+00  0.1836735E+00  0.2597155E-05  0.0000000E+00 -0.8610087E-01
  0.9591837E+00  0.0000000E+00  0.1836735E+00  0.1218167E-05  0.0000000E+00 -0.8610011E-01
  0.1000000E+01  0.0000000E+00  0.1836735E+00 -0.1847303E-06  0.0000000E+00 -0.8609990E-01
  0.1040816E+01  0.0000000E+00  0.1836735E+00 -0.1586288E-05  0.0000000E+00 -0.8610025E-01
  0.1081633E+01  0.0000000E+00  0.1836735E+00 -0.2961901E-05  0.0000000E+00 -0.8610115E-01
  0.1122449E+01  0.0000000E+00  0.1836735E+00 -0.4287281E-05  0.0000000E+00 -0.8610258E-01
  0.1163265E+01  0.0000000E+00  0.1836735E+00 -0.5538214E-05  0.0000000E+00 -0.8610452E-01
  0.1204082E+01  0.0000000E+00  0.1836735E+00 -0.6693027E-05  0.0000000E+00 -0.8610695E-01
  0.1244898E+01  0.0000000E+00  0.1836735E+00 -0.7732755E-05  0.0000000E+00 -0.8610980E-01
  0.1285714E+01  0.0000000E+00  0.1836735E+00 -0.8639671E-05  0.0000000E+00 -0.8611304E-01
  0.1326531E+01  0.0000000E+00  0.1836735E+00 -0.9399195E-05  0.0000000E+00 -0.8611660E-01
  0.1367347E+01  0.0000000E+00  0.1836735E+00 -0.9999786E-05  0.0000000E+00 -0.8612044E-01
  0.1408163E+01  0.0000000E+00  0.1836735E+00 -0.1043276E-04  0.0000000E+00 -0.8612448E-01
  0.1448980E+01  0.0000000E+00  0.1836735E+00 -0.1069250E-04  0.0000000E+00 -0.8612865E-01
  0.1489796E+01  0.0000000E+00  0.1836735E+00 -0.1077649E-04  0.0000000E+00 -0.8613288E-01
  0.1530612E+01  0.0000000E+00  0.1836735E+00 -0.1068526E-04  0.0000000E+00 -0.8613712E-01
  0.1571429E+01  0.0000000E+00  0.1836735E+00 -0.1042210E-04  0.0000000E+00 -0.8614128E-01
  0.1612245E+01  0.0000000E+00  0.1836735E+00 -0.9992920E-05  0.0000000E+00 -0.8614530E-01
  0.1653061E+01  0.0000000E+00  0.1836735E+00 -0.9406055E-05  0.0000000E+00 -0.8614912E-01
  0.1693878E+01  0.0000000E+00  0.1836735E+00 -0.8672090E-05  0.0000000E+00 -0.8615268E-01
  0.1734694E+01  0.0000000E+00  0.1836735E+00 -0.7803645E-05  0.0000000E+00 -0.8615592E-01
  0.1775510E+01  0.0000000E+00  0.1836735E+00 -0.6815115E-05  0.0000000E+00 -0.8615880E-01
  0.1816326E+01  0.0000000E+00  0.1836735E+00 -0.5722407E-05  0.0000000E+00 -0.8616127E-01
  0.1857143E+01  0.0000000E+00  0.1836735E+00 -0.4542673E-05  0.0000000E+00 -0.8616328E-01
  0.1897959E+01  0.0000000E+00  0.1836735E+00 -0.3294115E-05  0.0000000E+00 -0.8616482E-01
  0.1938776E+01  0.0000000E+00  0.1836735E+00 -0.1996063E-05  0.0000000E+00 -0.8616586E-01
  0.1989796E+01  0.0000000E+00  0.1836735E+00 -0.6690270E-06  0.0000000E+00 -0.8616639E-01
  0.2040816E-01  0.0000000E+00  0.2244898E+00  0.7644342E-06  0.0000000E+00 -0.8616576E-01
  0.6122449E-01  0.0000000E+00  0.2244898E+00  0.2284235E-05  0.0000000E+00 -0.8616522E-01
  0.1020408E+00  0.0000000E+00  0.2244898E+00  0.3771305E-05  0.0000000E+00 -0.8616415E-01
  0.1428571E+00  0.0000000E+00  0.2244898E+00  0.5200936E-05  0.0000000E+00 -0.8616256E-01
  0.1836735E+00  0.0000000E+00  0.2244898E+00  0.6550445E-05  0.0000000E+00 -0.8616049E-01
  0.2244898E+00  0.0000000E+00  0.2244898E+00  0.7798854E-05  0.0000000E+00 -0.8615795E-01
  0.2653061E+00  0.0000000E+00  0.2244898E+00  0.8926806E-05  0.0000000E+00 -0.8615499E-01
  0.3061225E+00  0.0000000E+00  0.2244898E+00  0.9915517E-05  0.0000000E+00 -0.8615166E-01
  0.3469388E+00  0.0000000E+00  0.2244898E+00  0.1074827E-04  0.0000000E+00 -0.8614800E-01
  0.3877551E+00  0.0000000E+00  0.2244898E+00  0.1141049E-04  0.0000000E+00 -0.8614407E-01
  0.4285714E+00  0.0000000E+00  0.2244898E+00  0.1188981E-04  0.0000000E+00 -0.8613994E-01
  0.4693878E+00  0.0000000E+00  0.2244898E+00  0.1217643E-04  0.0000000E+00 -0.8613567E-01
  0.5102041E+00  0.0000000E+00  0.2244898E+00  0.1226347E-04  0.0000000E+00 -0.8613133E-01
  0.5510204E+00  0.0000000E+00  0.2244898E+00  0.1214719E-04  0.0000000E+00 -0.8612700E-01
  0.5918368E+00  0.0000000E+00  0.2244898E+00  0.1182712E-04  0.0000000E+00 -0.8612273E-01
  0.6326531E+00  0.0000000E+00  0.2244898E+00  0.1130625E-04  0.0000000E+00 -0.8611861E-01
  0.6734694E+00  0.0000000E+00  0.2244898E+00  0.1059110E-04  0.0000000E+00 -0.8611471E-01
  0.7142857E+00  0.0000000E+00  0.2244898E+00  0.9691845E-05  0.0000000E+00 -0.8611110E-01
  0.7551020E+00  0.0000000E+00  0.2244898E+00  0.8622204E-05  0.0000000E+00 -0.8610783E-01
  0.7959183E+00  0.0000000E+00  0.2244898E+00  0.7399340E-05  0.0000000E+00 -0.8610497E-01
  0.8367347E+00  0.0000000E+00  0.2244898E+00  0.6043550E-05  0.0000000E+00 -0.8610257E-01
  0.8775510E+00  0.0000000E+00  0.2244898E+00  0.4577917E-05  0.0000000E+00 -0.8610067E-01
  0.9183673E+00  0.0000000E+00  0.2244898E+00  0.3028307E-05  0.0000000E+00 -0.8609931E-01
  0.9591837E+00  0.0000000E+00  0.2244898E+00  0.1422338E-05  0.0000000E+00 -0.8609851E-01
  0.1000000E+01  0.0000000E+00  0.2244898E+00 -0.2116495E-06  0.0000000E+00 -0.8609829E-01
  0.1040816E+01  0.0000000E+00  0.2244898E+00 -0.1844092E-05  0.0000000E+00 -0.8609865E-01
  0.1081633E+01  0.0000000E+00  0.2244898E+00 -0.3446115E-05  0.0000000E+00 -0.8609959E-01
  0.1122449E+01  0.0000000E+00  0.2244898E+00 -0.4989266E-05  0.0000000E+00 -0.8610109E-01
  0.1163265E+01  0.0000000E+00  0.2244898E+00 -0.6445377E-05  0.0000000E+00 -0.8610313E-01
  0.1204082E+01  0.0000000E+00  0.2244898E+00 -0.7789109E-05  0.0000000E+00 -0.8610567E-01
  0.1244898E+01  0.0000000E+00  0.2244898E+00 -0.8998239E-05  0.0000000E+00 -0.8610866E-01
  0.1285714E+01  0.0000000E+00  0.2244898E+00 -0.1005220E-04  0.0000000E+00 -0.8611205E-01
  0.1326531E+01  0.0000000E+00  0.2244898E+00 -0.1093408E-04  0.0000000E+00 -0.8611578E-01
  0.1367347E+01  0.0000000E+00  0.2244898E+00 -0.1163051E-04  0.0000000E+00 -0.8611979E-01
  0.1408163E+01  0.0000000E+00  0.2244898E+00 -0.1213155E-04  0.0000000E+00 -0.8612402E-01
  0.1448980E+01  0.0000000E+00  0.2244898E+00 -0.1243081E-04  0.0000000E+00 -0.8612838E-01
  0.1489796E+01  0.0000000E+00  0.2244898E+00 -0.1252559E-04  0.0000000E+00 -0.8613281E-01
  0.1530612E+01  0.0000000E+00  0.2244898E+00 -0.1241665E-04  0.0000000E+00 -0.8613723E-01
  0.1571429E+01  0.0000000E+00  0.2244898E+00 -0.1210803E-04  0.0000000E+00 -0.8614157E-01
  0.1612245E+01  0.0000000E+00  0.2244898E+00 -0.1160677E-04  0.0000000E+00 -0.8614577E-01
  0.1653061E+01  0.0000000E+00  0.2244898E+00 -0.1092273E-04  0.0000000E+00 -0.8614976E-01
  0.1693878E+01  0.0000000E+00  0.2244898E+00 -0.1006834E-04  0.0000000E+00 -0.8615347E-01
  0.1734694E+01  0.0000000E+00  0.2244898E+00 -0.9058351E-05  0.0000000E+00 -0.8615685E-01
  0.1775510E+01  0.0000000E+00  0.2244898E+00 -0.7909544E-05  0.0000000E+00 -0.8615985E-01
  0.1816326E+01  0.0000000E+00  0.2244898E+00 -0.6640397E-05  0.0000000E+00 -0.8616242E-01
  0.1857143E+01  0.0000000E+00  0.2244898E+00 -0.5270785E-05  0.0000000E+00 -0.8616452E-01
  0.1897959E+01  0.0000000E+00  0.2244898E+00 -0.3821737E-05  0.0000000E+00 -0.8616612E-01
  0.1938776E+01  0.0000000E+00  0.2244898E+00 -0.2315613E-05  0.0000000E+00 -0.8616721E-01
  0.1989796E+01  0.0000000E+00  0.2244898E+00 -0.7760168E-06  0.0000000E+00 -0.8616775E-01
  0.2040816E-01  0.0000000E+00  0.2653061E+00  0.8662911E-06  0.0000000E+00 -0.8616729E-01
  0.6122449E-01  0.0000000E+00  0.2653061E+00  0.2588328E-05  0.0000000E+00 -0.8616673E-01
  0.1020408E+00  0.0000000E+00  0.2653061E+00  0.4273324E-05  0.0000000E+00 -0.8616561E-01
  0.1428571E+00  0.0000000E+00  0.2653061E+00  0.5893681E-05  0.0000000E+00 -0.8616395E-01
  0.1836735E+00  0.0000000E+00  0.2653061E+00  0.7423930E-05  0.0000000E+00 -0.8616178E-01
  0.2244898E+00  0.0000000E+00  0.2653061E+00  0.8840358E-05  0.0000000E+00 -0.8615912E-01
  0.2653061E+00  0.0000000E+00  0.2653061E+00  0.1012099E-04  0.0000000E+00 -0.8615603E-01
  0.3061225E+00  0.0000000E+00  0.2653061E+00  0.1124456E-04  0.0000000E+00 -0.8615253E-01
  0.3469388E+00  0.0000000E+00  0.2653061E+00  0.1219205E-04  0.0000000E+00 -0.8614870E-01
  0.3877551E+00  0.0000000E+00  0.2653061E+00  0.1294677E-04  0.0000000E+00 -0.8614459E-01
  0.4285714E+00  0.0000000E+00  0.2653061E+00  0.1349452E-04  0.0000000E+00 -0.8614025E-01
  0.4693878E+00  0.0000000E+00  0.2653061E+00  0.1382396E-04  0.0000000E+00 -0.8613577E-01
  0.5102041E+00  0.0000000E+00  0.2653061E+00  0.1392705E-04  0.0000000E+00 -0.8613121E-01
  0.5510204E+00  0.0000000E+00  0.2653061E+00  0.1379925E-04  0.0000000E+00 -0.8612666E-01
  0.5918368E+00  0.0000000E+00  0.2653061E+00  0.1343977E-04  0.0000000E+00 -0.8612218E-01
  0.6326531E+00  0.0000000E+00  0.2653061E+00  0.1285173E-04  0.0000000E+00 -0.8611785E-01
  0.6734694E+00  0.0000000E+00  0.2653061E+00  0.1204234E-04  0.0000000E+00 -0.8611374E-01
  0.7142857E+00  0.0000000E+00  0.2653061E+00  0.1102296E-04  0.0000000E+00 -0.8610993E-01
  0.7551020E+00  0.0000000E+00  0.2653061E+00  0.9809102E-05  0.0000000E+00 -0.8610649E-01
  0.7959183E+00  0.0000000E+00  0.2653061E+00  0.8420199E-05  0.0000000E+00 -0.8610348E-01
  0.8367347E+00  0.0000000E+00  0.2653061E+00  0.6879336E-05  0.0000000E+00 -0.8610095E-01
  0.8775510E+00  0.0000000E+00  0.2653061E+00  0.5212813E-05  0.0000000E+00 -0.8609894E-01
  0.9183673E+00  0.0000000E+00  0.2653061E+00  0.3450184E-05  0.0000000E+00 -0.8609751E-01
  0.9591837E+00  0.0000000E+00  0.2653061E+00  0.1623003E-05  0.0000000E+00 -0.8609666E-01
  0.1000000E+01  0.0000000E+00  0.2653061E+00 -0.2362897E-06  0.0000000E+00 -0.8609643E-01
  0.1040816E+01  0.0000000E+00  0.2653061E+00 -0.2093841E-05  0.0000000E+00 -0.8609681E-01
  0.1081633E+01  0.0000000E+00  0.2653061E+00 -0.3916509E-05  0.0000000E+00 -0.8609780E-01
  0.1122449E+01  0.0000000E+00  0.2653061E+00 -0.5671732E-05  0.0000000E+00 -0.8609938E-01
  0.1163265E+01  0.0000000E+00  0.2653061E+00 -0.7327424E-05  0.0000000E+00 -0.8610152E-01
  0.1204082E+01  0.0000000E+00  0.2653061E+00 -0.8854625E-05  0.0000000E+00 -0.8610419E-01
  0.1244898E+01  0.0000000E+00  0.2653061E+00 -0.1022793E-04  0.0000000E+00 -0.8610733E-01
  0.1285714E+01  0.0000000E+00  0.2653061E+00 -0.1142400E-04  0.0000000E+00 -0.8611090E-01
  0.1326531E+01  0.0000000E+00  0.2653061E+00 -0.1242368E-04  0.0000000E+00 -0.8611483E-01