title = "dataset feddes"
variables = "x", "y", "z", "vx", "vy", "vz"
zone t = "velocities, solution time =  2.600E+01 days        " i =   49, j =   49, k =    1,  f=point
  0.2040816E-01  0.0000000E+00  0.2040816E-01  0.2323577E-06  0.0000000E+00 -0.8584448E-01
  0.6122449E-01  0.0000000E+00  0.2040816E-01  0.6940324E-06  0.0000000E+00 -0.8584342E-01
  0.1020408E+00  0.0000000E+00  0.2040816E-01  0.1145478E-05  0.0000000E+00 -0.8584133E-01
  0.1428571E+00  0.0000000E+00  0.2040816E-01  0.1579147E-05  0.0000000E+00 -0.8583823E-01
  0.1836735E+00  0.0000000E+00  0.2040816E-01  0.1986484E-05  0.0000000E+00 -0.8583418E-01
  0.2244898E+00  0.0000000E+00  0.2040816E-01  0.2361831E-05  0.0000000E+00 -0.8582924E-01
  0.2653061E+00  0.0000000E+00  0.2040816E-01  0.2699827E-05  0.0000000E+00 -0.8582348E-01
  0.3061225E+00  0.0000000E+00  0.2040816E-01  0.2993750E-05  0.0000000E+00 -0.8581701E-01
  0.3469388E+00  0.0000000E+00  0.2040816E-01  0.3238229E-05  0.0000000E+00 -0.8580993E-01
  0.3877551E+00  0.0000000E+00  0.2040816E-01  0.3429104E-05  0.0000000E+00 -0.8580235E-01
  0.4285714E+00  0.0000000E+00  0.2040816E-01  0.3562823E-05  0.0000000E+00 -0.8579440E-01
  0.4693878E+00  0.0000000E+00  0.2040816E-01  0.3636465E-05  0.0000000E+00 -0.8578621E-01
  0.5102041E+00  0.0000000E+00  0.2040816E-01  0.3648013E-05  0.0000000E+00 -0.8577793E-01
  0.5510204E+00  0.0000000E+00  0.2040816E-01  0.3596507E-05  0.0000000E+00 -0.8576970E-01
  0.5918368E+00  0.0000000E+00  0.2040816E-01  0.3482088E-05  0.0000000E+00 -0.8576165E-01
  0.6326531E+00  0.0000000E+00  0.2040816E-01  0.3305991E-05  0.0000000E+00 -0.8575394E-01
  0.6734694E+00  0.0000000E+00  0.2040816E-01  0.3070542E-05  0.0000000E+00 -0.8574669E-01
  0.7142857E+00  0.0000000E+00  0.2040816E-01  0.2779152E-05  0.0000000E+00 -0.8574004E-01
  0.7551020E+00  0.0000000E+00  0.2040816E-01  0.2436300E-05  0.0000000E+00 -0.8573411E-01
  0.7959183E+00  0.0000000E+00  0.2040816E-01  0.2047484E-05  0.0000000E+00 -0.8572901E-01
  0.8367347E+00  0.0000000E+00  0.2040816E-01  0.1619148E-05  0.0000000E+00 -0.8572485E-01
  0.8775510E+00  0.0000000E+00  0.2040816E-01  0.1158553E-05  0.0000000E+00 -0.8572169E-01
  0.9183673E+00  0.0000000E+00  0.2040816E-01  0.6736324E-06  0.0000000E+00 -0.8571961E-01
  0.9591837E+00  0.0000000E+00  0.2040816E-01  0.1728605E-06  0.0000000E+00 -0.8571865E-01
  0.1000000E+01  0.0000000E+00  0.2040816E-01 -0.3348611E-06  0.0000000E+00 -0.8571883E-01
  0.1040816E+01  0.0000000E+00  0.2040816E-01 -0.8401875E-06  0.0000000E+00 -0.8572016E-01
  0.1081633E+01  0.0000000E+00  0.2040816E-01 -0.1335024E-05  0.0000000E+00 -0.8572264E-01
  0.1122449E+01  0.0000000E+00  0.2040816E-01 -0.1810927E-05  0.0000000E+00 -0.8572621E-01
  0.1163265E+01  0.0000000E+00  0.2040816E-01 -0.2257591E-05  0.0000000E+00 -0.8573084E-01
  0.1204082E+01  0.0000000E+00  0.2040816E-01 -0.2668351E-05  0.0000000E+00 -0.8573644E-01
  0.1244898E+01  0.0000000E+00  0.2040816E-01 -0.3037323E-05  0.0000000E+00 -0.8574292E-01
  0.1285714E+01  0.0000000E+00  0.2040816E-01 -0.3357124E-05  0.0000000E+00 -0.8575019E-01
  0.1326531E+01  0.0000000E+00  0.2040816E-01 -0.3622321E-05  0.0000000E+00 -0.8575812E-01
  0.1367347E+01  0.0000000E+00  0.2040816E-01 -0.3829181E-05  0.0000000E+00 -0.8576659E-01
  0.1408163E+01  0.0000000E+00  0.2040816E-01 -0.3974838E-05  0.0000000E+00 -0.8577546E-01
  0.1448980E+01  0.0000000E+00  0.2040816E-01 -0.4057259E-05  0.0000000E+00 -0.8578460E-01
  0.1489796E+01  0.0000000E+00  0.2040816E-01 -0.4075486E-05  0.0000000E+00 -0.8579384E-01
  0.1530612E+01  0.0000000E+00  0.2040816E-01 -0.4029716E-05  0.0000000E+00 -0.8580305E-01
  0.1571429E+01  0.0000000E+00  0.2040816E-01 -0.3921230E-05  0.0000000E+00 -0.8581209E-01
  0.1612245E+01  0.0000000E+00  0.2040816E-01 -0.3752283E-05  0.0000000E+00 -0.8582082E-01
  0.1653061E+01  0.0000000E+00  0.2040816E-01 -0.3525999E-05  0.0000000E+00 -0.8582909E-01
  0.1693878E+01  0.0000000E+00  0.2040816E-01 -0.3246283E-05  0.0000000E+00 -0.8583679E-01
  0.1734694E+01  0.0000000E+00  0.2040816E-01 -0.2917757E-05  0.0000000E+00 -0.8584380E-01
  0.1775510E+01  0.0000000E+00  0.2040816E-01 -0.2545682E-05  0.0000000E+00 -0.8585001E-01
  0.1816326E+01  0.0000000E+00  0.2040816E-01 -0.2135861E-05  0.0000000E+00 -0.8585533E-01
  0.1857143E+01  0.0000000E+00  0.2040816E-01 -0.1694553E-05  0.0000000E+00 -0.8585968E-01
  0.1897959E+01  0.0000000E+00  0.2040816E-01 -0.1228394E-05  0.0000000E+00 -0.8586301E-01
  0.1938776E+01  0.0000000E+00  0.2040816E-01 -0.7443028E-06  0.0000000E+00 -0.8586525E-01
  0.1989796E+01  0.0000000E+00  0.2040816E-01 -0.2494476E-06  0.0000000E+00 -0.8586638E-01
  0.2040816E-01  0.0000000E+00  0.6122449E-01  0.6371503E-06  0.0000000E+00 -0.8584539E-01
  0.6122449E-01  0.0000000E+00  0.6122449E-01  0.1903053E-05  0.0000000E+00 -0.8584433E-01
  0.1020408E+00  0.0000000E+00  0.6122449E-01  0.3140095E-05  0.0000000E+00 -0.8584220E-01
  0.1428571E+00  0.0000000E+00  0.6122449E-01  0.4328282E-05  0.0000000E+00 -0.8583906E-01
  0.1836735E+00  0.0000000E+00  0.6122449E-01  0.5445411E-05  0.0000000E+00 -0.8583495E-01
  0.2244898E+00  0.0000000E+00  0.6122449E-01  0.6474848E-05  0.0000000E+00 -0.8582994E-01
  0.2653061E+00  0.0000000E+00  0.6122449E-01  0.7401437E-05  0.0000000E+00 -0.8582410E-01
  0.3061225E+00  0.0000000E+00  0.6122449E-01  0.8207410E-05  0.0000000E+00 -0.8581754E-01
  0.3469388E+00  0.0000000E+00  0.6122449E-01  0.8878160E-05  0.0000000E+00 -0.8581035E-01
  0.3877551E+00  0.0000000E+00  0.6122449E-01  0.9402084E-05  0.0000000E+00 -0.8580266E-01
  0.4285714E+00  0.0000000E+00  0.6122449E-01  0.9769315E-05  0.0000000E+00 -0.8579459E-01
  0.4693878E+00  0.0000000E+00  0.6122449E-01  0.9971846E-05  0.0000000E+00 -0.8578629E-01
  0.5102041E+00  0.0000000E+00  0.6122449E-01  0.1000415E-04  0.0000000E+00 -0.8577788E-01
  0.5510204E+00  0.0000000E+00  0.6122449E-01  0.9863591E-05  0.0000000E+00 -0.8576952E-01
  0.5918368E+00  0.0000000E+00  0.6122449E-01  0.9550502E-05  0.0000000E+00 -0.8576135E-01
  0.6326531E+00  0.0000000E+00  0.6122449E-01  0.9068232E-05  0.0000000E+00 -0.8575351E-01
  0.6734694E+00  0.0000000E+00  0.6122449E-01  0.8423119E-05  0.0000000E+00 -0.8574615E-01
  0.7142857E+00  0.0000000E+00  0.6122449E-01  0.7624495E-05  0.0000000E+00 -0.8573939E-01
  0.7551020E+00  0.0000000E+00  0.6122449E-01  0.6684623E-05  0.0000000E+00 -0.8573337E-01
  0.7959183E+00  0.0000000E+00  0.6122449E-01  0.5618585E-05  0.0000000E+00 -0.8572819E-01
  0.8367347E+00  0.0000000E+00  0.6122449E-01  0.4444055E-05  0.0000000E+00 -0.8572395E-01
  0.8775510E+00  0.0000000E+00  0.6122449E-01  0.3180938E-05  0.0000000E+00 -0.8572073E-01
  0.9183673E+00  0.0000000E+00  0.6122449E-01  0.1850954E-05  0.0000000E+00 -0.8571861E-01
  0.9591837E+00  0.0000000E+00  0.6122449E-01  0.4777813E-06  0.0000000E+00 -0.8571763E-01
  0.1000000E+01  0.0000000E+00  0.6122449E-01 -0.9147528E-06  0.0000000E+00 -0.8571780E-01
  0.1040816E+01  0.0000000E+00  0.6122449E-01 -0.2301407E-05  0.0000000E+00 -0.8571915E-01
  0.1081633E+01  0.0000000E+00  0.6122449E-01 -0.3658257E-05  0.0000000E+00 -0.8572166E-01
  0.1122449E+01  0.0000000E+00  0.6122449E-01 -0.4962763E-05  0.0000000E+00 -0.8572528E-01
  0.1163265E+01  0.0000000E+00  0.6122449E-01 -0.6188214E-05  0.0000000E+00 -0.8572997E-01
  0.1204082E+01  0.0000000E+00  0.6122449E-01 -0.7314976E-05  0.0000000E+00 -0.8573565E-01
  0.1244898E+01  0.0000000E+00  0.6122449E-01 -0.8326329E-05  0.0000000E+00 -0.8574222E-01
  0.1285714E+01  0.0000000E+00  0.6122449E-01 -0.9202855E-05  0.0000000E+00 -0.8574959E-01
  0.1326531E+01  0.0000000E+00  0.6122449E-01 -0.9929817E-05  0.0000000E+00 -0.8575764E-01
  0.1367347E+01  0.0000000E+00  0.6122449E-01 -0.1049676E-04  0.0000000E+00 -0.8576623E-01
  0.1408163E+01  0.0000000E+00  0.6122449E-01 -0.1089573E-04  0.0000000E+00 -0.8577523E-01
  0.1448980E+01  0.0000000E+00  0.6122449E-01 -0.1112122E-04  0.0000000E+00 -0.8578448E-01
  0.1489796E+01  0.0000000E+00  0.6122449E-01 -0.1117069E-04  0.0000000E+00 -0.8579386E-01
  0.1530612E+01  0.0000000E+00  0.6122449E-01 -0.1104475E-04  0.0000000E+00 -0.8580320E-01
  0.1571429E+01  0.0000000E+00  0.6122449E-01 -0.1074693E-04  0.0000000E+00 -0.8581236E-01
  0.1612245E+01  0.0000000E+00  0.6122449E-01 -0.1028344E-04  0.0000000E+00 -0.8582120E-01
  0.1653061E+01  0.0000000E+00  0.6122449E-01 -0.9662872E-05  0.0000000E+00 -0.8582959E-01
  0.1693878E+01  0.0000000E+00  0.6122449E-01 -0.8895953E-05  0.0000000E+00 -0.8583739E-01
  0.1734694E+01  0.0000000E+00  0.6122449E-01 -0.7995366E-05  0.0000000E+00 -0.8584449E-01
  0.1775510E+01  0.0000000E+00  0.6122449E-01 -0.6975535E-05  0.0000000E+00 -0.8585078E-01
  0.1816326E+01  0.0000000E+00  0.6122449E-01 -0.5852377E-05  0.0000000E+00 -0.8585617E-01
  0.1857143E+01  0.0000000E+00  0.6122449E-01 -0.4643040E-05  0.0000000E+00 -0.8586058E-01
  0.1897959E+01  0.0000000E+00  0.6122449E-01 -0.3365676E-05  0.0000000E+00 -0.8586395E-01
  0.1938776E+01  0.0000000E+00  0.6122449E-01 -0.2039185E-05  0.0000000E+00 -0.8586622E-01
  0.1989796E+01  0.0000000E+00  0.6122449E-01 -0.6833832E-06  0.0000000E+00 -0.8586736E-01
  0.2040816E-01  0.0000000E+00  0.1020408E+00  0.9571263E-06  0.0000000E+00 -0.8584698E-01
  0.6122449E-01  0.0000000E+00  0.1020408E+00  0.2858841E-05  0.0000000E+00 -0.8584589E-01
  0.1020408E+00  0.0000000E+00  0.1020408E+00  0.4716392E-05  0.0000000E+00 -0.8584372E-01
  0.1428571E+00  0.0000000E+00  0.1020408E+00  0.6500273E-05  0.0000000E+00 -0.8584050E-01
  0.1836735E+00  0.0000000E+00  0.1020408E+00  0.8179049E-05  0.0000000E+00 -0.8583629E-01
  0.2244898E+00  0.0000000E+00  0.1020408E+00  0.9726363E-05  0.0000000E+00 -0.8583116E-01
  0.2653061E+00  0.0000000E+00  0.1020408E+00  0.1111870E-04  0.0000000E+00 -0.8582518E-01
  0.3061225E+00  0.0000000E+00  0.1020408E+00  0.1233033E-04  0.0000000E+00 -0.8581845E-01
  0.3469388E+00  0.0000000E+00  0.1020408E+00  0.1333949E-04  0.0000000E+00 -0.8581108E-01
  0.3877551E+00  0.0000000E+00  0.1020408E+00  0.1412839E-04  0.0000000E+00 -0.8580320E-01
  0.4285714E+00  0.0000000E+00  0.1020408E+00  0.1468201E-04  0.0000000E+00 -0.8579493E-01
  0.4693878E+00  0.0000000E+00  0.1020408E+00  0.1498825E-04  0.0000000E+00 -0.8578641E-01
  0.5102041E+00  0.0000000E+00  0.1020408E+00  0.1503879E-04  0.0000000E+00 -0.8577779E-01
  0.5510204E+00  0.0000000E+00  0.1020408E+00  0.1482958E-04  0.0000000E+00 -0.8576921E-01
  0.5918368E+00  0.0000000E+00  0.1020408E+00  0.1436101E-04  0.0000000E+00 -0.8576082E-01
  0.6326531E+00  0.0000000E+00  0.1020408E+00  0.1363800E-04  0.0000000E+00 -0.8575277E-01
  0.6734694E+00  0.0000000E+00  0.1020408E+00  0.1266996E-04  0.0000000E+00 -0.8574521E-01
  0.7142857E+00  0.0000000E+00  0.1020408E+00  0.1147085E-04  0.0000000E+00 -0.8573826E-01
  0.7551020E+00  0.0000000E+00  0.1020408E+00  0.1005906E-04  0.0000000E+00 -0.8573207E-01
  0.7959183E+00  0.0000000E+00  0.1020408E+00  0.8457242E-05  0.0000000E+00 -0.8572673E-01
  0.8367347E+00  0.0000000E+00  0.1020408E+00  0.6691983E-05  0.0000000E+00 -0.8572237E-01
  0.8775510E+00  0.0000000E+00  0.1020408E+00  0.4793223E-05  0.0000000E+00 -0.8571906E-01
  0.9183673E+00  0.0000000E+00  0.1020408E+00  0.2793577E-05  0.0000000E+00 -0.8571687E-01
  0.9591837E+00  0.0000000E+00  0.1020408E+00  0.7289401E-06  0.0000000E+00 -0.8571584E-01
  0.1000000E+01  0.0000000E+00  0.1020408E+00 -0.1364750E-05  0.0000000E+00 -0.8571601E-01
  0.1040816E+01  0.0000000E+00  0.1020408E+00 -0.3450540E-05  0.0000000E+00 -0.8571738E-01
  0.1081633E+01  0.0000000E+00  0.1020408E+00 -0.5490574E-05  0.0000000E+00 -0.8571994E-01
  0.1122449E+01  0.0000000E+00  0.1020408E+00 -0.7450984E-05  0.0000000E+00 -0.8572365E-01
  0.1163265E+01  0.0000000E+00  0.1020408E+00 -0.9293861E-05  0.0000000E+00 -0.8572844E-01
  0.1204082E+01  0.0000000E+00  0.1020408E+00 -0.1098801E-04  0.0000000E+00 -0.8573426E-01
  0.1244898E+01  0.0000000E+00  0.1020408E+00 -0.1250732E-04  0.0000000E+00 -0.8574100E-01
  0.1285714E+01  0.0000000E+00  0.1020408E+00 -0.1382381E-04  0.0000000E+00 -0.8574855E-01
  0.1326531E+01  0.0000000E+00  0.1020408E+00 -0.1491560E-04  0.0000000E+00 -0.8575679E-01
  0.1367347E+01  0.0000000E+00  0.1020408E+00 -0.1576665E-04  0.0000000E+00 -0.8576559E-01
  0.1408163E+01  0.0000000E+00  0.1020408E+00 -0.1636492E-04  0.0000000E+00 -0.8577480E-01
  0.1448980E+01  0.0000000E+00  0.1020408E+00 -0.1670227E-04  0.0000000E+00 -0.8578428E-01
  0.1489796E+01  0.0000000E+00  0.1020408E+00 -0.1677512E-04  0.0000000E+00 -0.8579388E-01
  0.1530612E+01  0.0000000E+00  0.1020408E+00 -0.1658450E-04  0.0000000E+00 -0.8580344E-01
  0.1571429E+01  0.0000000E+00  0.1020408E+00 -0.1613584E-04  0.0000000E+00 -0.8581282E-01
  0.1612245E+01  0.0000000E+00  0.1020408E+00 -0.1543854E-04  0.0000000E+00 -0.8582186E-01
  0.1653061E+01  0.0000000E+00  0.1020408E+00 -0.1450557E-04  0.0000000E+00 -0.8583044E-01
  0.1693878E+01  0.0000000E+00  0.1020408E+00 -0.1335317E-04  0.0000000E+00 -0.8583842E-01
  0.1734694E+01  0.0000000E+00  0.1020408E+00 -0.1200040E-04  0.0000000E+00 -0.8584568E-01
  0.1775510E+01  0.0000000E+00  0.1020408E+00 -0.1046896E-04  0.0000000E+00 -0.8585212E-01
  0.1816326E+01  0.0000000E+00  0.1020408E+00 -0.8782750E-05  0.0000000E+00 -0.8585763E-01
  0.1857143E+01  0.0000000E+00  0.1020408E+00 -0.6967503E-05  0.0000000E+00 -0.8586214E-01
  0.1897959E+01  0.0000000E+00  0.1020408E+00 -0.5050391E-05  0.0000000E+00 -0.8586558E-01
  0.1938776E+01  0.0000000E+00  0.1020408E+00 -0.3059708E-05  0.0000000E+00 -0.8586790E-01
  0.1989796E+01  0.0000000E+00  0.1020408E+00 -0.1025256E-05  0.0000000E+00 -0.8586907E-01
  0.2040816E-01  0.0000000E+00  0.1428571E+00  0.1237455E-05  0.0000000E+00 -0.8584915E-01
  0.6122449E-01  0.0000000E+00  0.1428571E+00  0.3696073E-05  0.0000000E+00 -0.8584802E-01
  0.1020408E+00  0.0000000E+00  0.1428571E+00  0.6097617E-05  0.0000000E+00 -0.8584578E-01
  0.1428571E+00  0.0000000E+00  0.1428571E+00  0.8403792E-05  0.0000000E+00 -0.8584246E-01
  0.1836735E+00  0.0000000E+00  0.1428571E+00  0.1057522E-04  0.0000000E+00 -0.8583811E-01
  0.2244898E+00  0.0000000E+00  0.1428571E+00  0.1257733E-04  0.0000000E+00 -0.8583281E-01
  0.2653061E+00  0.0000000E+00  0.1428571E+00  0.1437916E-04  0.0000000E+00 -0.8582664E-01
  0.3061225E+00  0.0000000E+00  0.1428571E+00  0.1594805E-04  0.0000000E+00 -0.8581969E-01
  0.3469388E+00  0.0000000E+00  0.1428571E+00  0.1725595E-04  0.0000000E+00 -0.8581208E-01
  0.3877551E+00  0.0000000E+00  0.1428571E+00  0.1827955E-04  0.0000000E+00 -0.8580393E-01
  0.4285714E+00  0.0000000E+00  0.1428571E+00  0.1899915E-04  0.0000000E+00 -0.8579538E-01
  0.4693878E+00  0.0000000E+00  0.1428571E+00  0.1939900E-04  0.0000000E+00 -0.8578657E-01
  0.5102041E+00  0.0000000E+00  0.1428571E+00  0.1946820E-04  0.0000000E+00 -0.8577765E-01
  0.5510204E+00  0.0000000E+00  0.1428571E+00  0.1920133E-04  0.0000000E+00 -0.8576877E-01
  0.5918368E+00  0.0000000E+00  0.1428571E+00  0.1859869E-04  0.0000000E+00 -0.8576009E-01
  0.6326531E+00  0.0000000E+00  0.1428571E+00  0.1766640E-04  0.0000000E+00 -0.8575175E-01
  0.6734694E+00  0.0000000E+00  0.1428571E+00  0.1641650E-04  0.0000000E+00 -0.8574391E-01
  0.7142857E+00  0.0000000E+00  0.1428571E+00  0.1486688E-04  0.0000000E+00 -0.8573671E-01
  0.7551020E+00  0.0000000E+00  0.1428571E+00  0.1304127E-04  0.0000000E+00 -0.8573028E-01
  0.7959183E+00  0.0000000E+00  0.1428571E+00  0.1096899E-04  0.0000000E+00 -0.8572474E-01
  0.8367347E+00  0.0000000E+00  0.1428571E+00  0.8684421E-05  0.0000000E+00 -0.8572021E-01
  0.8775510E+00  0.0000000E+00  0.1428571E+00  0.6226336E-05  0.0000000E+00 -0.8571676E-01
  0.9183673E+00  0.0000000E+00  0.1428571E+00  0.3637289E-05  0.0000000E+00 -0.8571447E-01
  0.9591837E+00  0.0000000E+00  0.1428571E+00  0.9633177E-06  0.0000000E+00 -0.8571339E-01
  0.1000000E+01  0.0000000E+00  0.1428571E+00 -0.1747981E-05  0.0000000E+00 -0.8571355E-01
  0.1040816E+01  0.0000000E+00  0.1428571E+00 -0.4449377E-05  0.0000000E+00 -0.8571495E-01
  0.1081633E+01  0.0000000E+00  0.1428571E+00 -0.7091528E-05  0.0000000E+00 -0.8571758E-01
  0.1122449E+01  0.0000000E+00  0.1428571E+00 -0.9629572E-05  0.0000000E+00 -0.8572140E-01
  0.1163265E+01  0.0000000E+00  0.1428571E+00 -0.1201568E-04  0.0000000E+00 -0.8572635E-01
  0.1204082E+01  0.0000000E+00  0.1428571E+00 -0.1420879E-04  0.0000000E+00 -0.8573236E-01
  0.1244898E+01  0.0000000E+00  0.1428571E+00 -0.1617429E-04  0.0000000E+00 -0.8573931E-01
  0.1285714E+01  0.0000000E+00  0.1428571E+00 -0.1787674E-04  0.0000000E+00 -0.8574711E-01
  0.1326531E+01  0.0000000E+00  0.1428571E+00 -0.1928804E-04  0.0000000E+00 -0.8575562E-01
  0.1367347E+01  0.0000000E+00  0.1428571E+00 -0.2038727E-04  0.0000000E+00 -0.8576471E-01
  0.1408163E+01  0.0000000E+00  0.1428571E+00 -0.2115887E-04  0.0000000E+00 -0.8577422E-01
  0.1448980E+01  0.0000000E+00  0.1428571E+00 -0.2159257E-04  0.0000000E+00 -0.8578400E-01
  0.1489796E+01  0.0000000E+00  0.1428571E+00 -0.2168398E-04  0.0000000E+00 -0.8579390E-01
  0.1530612E+01  0.0000000E+00  0.1428571E+00 -0.2143473E-04  0.0000000E+00 -0.8580377E-01
  0.1571429E+01  0.0000000E+00  0.1428571E+00 -0.2085205E-04  0.0000000E+00 -0.8581344E-01
  0.1612245E+01  0.0000000E+00  0.1428571E+00 -0.1994824E-04  0.0000000E+00 -0.8582276E-01
  0.1653061E+01  0.0000000E+00  0.1428571E+00 -0.1874027E-04  0.0000000E+00 -0.8583160E-01
  0.1693878E+01  0.0000000E+00  0.1428571E+00 -0.1724925E-04  0.0000000E+00 -0.8583982E-01
  0.1734694E+01  0.0000000E+00  0.1428571E+00 -0.1549998E-04  0.0000000E+00 -0.8584730E-01
  0.1775510E+01  0.0000000E+00  0.1428571E+00 -0.1352051E-04  0.0000000E+00 -0.8585393E-01
  0.1816326E+01  0.0000000E+00  0.1428571E+00 -0.1134177E-04  0.0000000E+00 -0.8585961E-01
  0.1857143E+01  0.0000000E+00  0.1428571E+00 -0.8996932E-05  0.0000000E+00 -0.8586425E-01
  0.1897959E+01  0.0000000E+00  0.1428571E+00 -0.6520950E-05  0.0000000E+00 -0.8586779E-01
  0.1938776E+01  0.0000000E+00  0.1428571E+00 -0.3950413E-05  0.0000000E+00 -0.8587018E-01
  0.1989796E+01  0.0000000E+00  0.1428571E+00 -0.1323526E-05  0.0000000E+00 -0.8587138E-01
  0.2040816E-01  0.0000000E+00  0.1836735E+00  0.1493724E-05  0.0000000E+00 -0.8585182E-01
  0.6122449E-01  0.0000000E+00  0.1836735E+00  0.4461033E-05  0.0000000E+00 -0.8585065E-01
  0.1020408E+00  0.0000000E+00  0.1836735E+00  0.7359759E-05  0.0000000E+00 -0.8584832E-01
  0.1428571E+00  0.0000000E+00  0.1836735E+00  0.1014367E-04  0.0000000E+00 -0.8584487E-01
  0.1836735E+00  0.0000000E+00  0.1836735E+00  0.1276604E-04  0.0000000E+00 -0.8584036E-01
  0.2244898E+00  0.0000000E+00  0.1836735E+00  0.1518504E-04  0.0000000E+00 -0.8583486E-01
  0.2653061E+00  0.0000000E+00  0.1836735E+00  0.1736289E-04  0.0000000E+00 -0.8582844E-01
  0.3061225E+00  0.0000000E+00  0.1836735E+00  0.1926059E-04  0.0000000E+00 -0.8582122E-01
  0.3469388E+00  0.0000000E+00  0.1836735E+00  0.2084428E-04  0.0000000E+00 -0.8581331E-01
  0.3877551E+00  0.0000000E+00  0.1836735E+00  0.2208550E-04  0.0000000E+00 -0.8580484E-01
  0.4285714E+00  0.0000000E+00  0.1836735E+00  0.2296018E-04  0.0000000E+00 -0.8579594E-01
  0.4693878E+00  0.0000000E+00  0.1836735E+00  0.2344905E-04  0.0000000E+00 -0.8578677E-01
  0.5102041E+00  0.0000000E+00  0.1836735E+00  0.2353871E-04  0.0000000E+00 -0.8577748E-01
  0.5510204E+00  0.0000000E+00  0.1836735E+00  0.2322229E-04  0.0000000E+00 -0.8576822E-01
  0.5918368E+00  0.0000000E+00  0.1836735E+00  0.2249982E-04  0.0000000E+00 -0.8575917E-01
  0.6326531E+00  0.0000000E+00  0.1836735E+00  0.2137839E-04  0.0000000E+00 -0.8575047E-01
  0.6734694E+00  0.0000000E+00  0.1836735E+00  0.1987223E-04  0.0000000E+00 -0.8574229E-01
  0.7142857E+00  0.0000000E+00  0.1836735E+00  0.1800277E-04  0.0000000E+00 -0.8573477E-01
  0.7551020E+00  0.0000000E+00  0.1836735E+00  0.1579857E-04  0.0000000E+00 -0.8572805E-01
  0.7959183E+00  0.0000000E+00  0.1836735E+00  0.1329502E-04  0.0000000E+00 -0.8572226E-01
  0.8367347E+00  0.0000000E+00  0.1836735E+00  0.1053366E-04  0.0000000E+00 -0.8571751E-01
  0.8775510E+00  0.0000000E+00  0.1836735E+00  0.7561313E-05  0.0000000E+00 -0.8571389E-01
  0.9183673E+00  0.0000000E+00  0.1836735E+00  0.4430097E-05  0.0000000E+00 -0.8571148E-01
  0.9591837E+00  0.0000000E+00  0.1836735E+00  0.1195262E-05  0.0000000E+00 -0.8571034E-01
  0.1000000E+01  0.0000000E+00  0.1836735E+00 -0.2084987E-05  0.0000000E+00 -0.8571048E-01
  0.1040816E+01  0.0000000E+00  0.1836735E+00 -0.5353209E-05  0.0000000E+00 -0.8571192E-01
  0.1081633E+01  0.0000000E+00  0.1836735E+00 -0.8549749E-05  0.0000000E+00 -0.8571464E-01
  0.1122449E+01  0.0000000E+00  0.1836735E+00 -0.1161944E-04  0.0000000E+00 -0.8571860E-01
  0.1163265E+01  0.0000000E+00  0.1836735E+00 -0.1450501E-04  0.0000000E+00 -0.8572375E-01
  0.1204082E+01  0.0000000E+00  0.1836735E+00 -0.1715639E-04  0.0000000E+00 -0.8572998E-01
  0.1244898E+01  0.0000000E+00  0.1836735E+00 -0.1953115E-04  0.0000000E+00 -0.8573721E-01
  0.1285714E+01  0.0000000E+00  0.1836735E+00 -0.2158694E-04  0.0000000E+00 -0.8574532E-01
  0.1326531E+01  0.0000000E+00  0.1836735E+00 -0.2328999E-04  0.0000000E+00 -0.8575416E-01
  0.1367347E+01  0.0000000E+00  0.1836735E+00 -0.2461500E-04  0.0000000E+00 -0.8576360E-01
  0.1408163E+01  0.0000000E+00  0.1836735E+00 -0.2554333E-04  0.0000000E+00 -0.8577349E-01
  0.1448980E+01  0.0000000E+00  0.1836735E+00 -0.2606291E-04  0.0000000E+00 -0.8578365E-01
  0.1489796E+01  0.0000000E+00  0.1836735E+00 -0.2616884E-04  0.0000000E+00 -0.8579393E-01
  0.1530612E+01  0.0000000E+00  0.1836735E+00 -0.2586344E-04  0.0000000E+00 -0.8580417E-01
  0.1571429E+01  0.0000000E+00  0.1836735E+00 -0.2515582E-04  0.0000000E+00 -0.8581420E-01
  0.1612245E+01  0.0000000E+00  0.1836735E+00 -0.2406115E-04  0.0000000E+00 -0.8582387E-01
  0.1653061E+01  0.0000000E+00  0.1836735E+00 -0.2260014E-04  0.0000000E+00 -0.8583304E-01
  0.1693878E+01  0.0000000E+00  0.1836735E+00 -0.2079855E-04  0.0000000E+00 -0.8584156E-01
  0.1734694E+01  0.0000000E+00  0.1836735E+00 -0.1868644E-04  0.0000000E+00 -0.8584931E-01
  0.1775510E+01  0.0000000E+00  0.1836735E+00 -0.1629777E-04  0.0000000E+00 -0.8585617E-01
  0.1816326E+01  0.0000000E+00  0.1836735E+00 -0.1366986E-04  0.0000000E+00 -0.8586205E-01
  0.1857143E+01  0.0000000E+00  0.1836735E+00 -0.1084266E-04  0.0000000E+00 -0.8586685E-01
  0.1897959E+01  0.0000000E+00  0.1836735E+00 -0.7858025E-05  0.0000000E+00 -0.8587052E-01
  0.1938776E+01  0.0000000E+00  0.1836735E+00 -0.4760131E-05  0.0000000E+00 -0.8587299E-01
  0.1989796E+01  0.0000000E+00  0.1836735E+00 -0.1594613E-05  0.0000000E+00 -0.8587424E-01
  0.2040816E-01  0.0000000E+00  0.2244898E+00  0.1734936E-05  0.0000000E+00 -0.8585497E-01
  0.6122449E-01  0.0000000E+00  0.2244898E+00  0.5180977E-05  0.0000000E+00 -0.8585374E-01
  0.1020408E+00  0.0000000E+00  0.2244898E+00  0.8547779E-05  0.0000000E+00 -0.8585131E-01
  0.1428571E+00  0.0000000E+00  0.2244898E+00  0.1178188E-04  0.0000000E+00 -0.8584772E-01
  0.1836735E+00  0.0000000E+00  0.2244898E+00  0.1482971E-04  0.0000000E+00 -0.8584301E-01
  0.2244898E+00  0.0000000E+00  0.2244898E+00  0.1764268E-04  0.0000000E+00 -0.8583726E-01
  0.2653061E+00  0.0000000E+00  0.2244898E+00  0.2017668E-04  0.0000000E+00 -0.8583057E-01
  0.3061225E+00  0.0000000E+00  0.2244898E+00  0.2238668E-04  0.0000000E+00 -0.8582303E-01
  0.3469388E+00  0.0000000E+00  0.2244898E+00  0.2423330E-04  0.0000000E+00 -0.8581476E-01
  0.3877551E+00  0.0000000E+00  0.2244898E+00  0.2568312E-04  0.0000000E+00 -0.8580590E-01
  0.4285714E+00  0.0000000E+00  0.2244898E+00  0.2670781E-04  0.0000000E+00 -0.8579660E-01
  0.4693878E+00  0.0000000E+00  0.2244898E+00  0.2728463E-04  0.0000000E+00 -0.8578700E-01
  0.5102041E+00  0.0000000E+00  0.2244898E+00  0.2739759E-04  0.0000000E+00 -0.8577727E-01
  0.5510204E+00  0.0000000E+00  0.2244898E+00  0.2703824E-04  0.0000000E+00 -0.8576758E-01
  0.5918368E+00  0.0000000E+00  0.2244898E+00  0.2620617E-04  0.0000000E+00 -0.8575808E-01
  0.6326531E+00  0.0000000E+00  0.2244898E+00  0.2490913E-04  0.0000000E+00 -0.8574896E-01
  0.6734694E+00  0.0000000E+00  0.2244898E+00  0.2316329E-04  0.0000000E+00 -0.8574037E-01
  0.7142857E+00  0.0000000E+00  0.2244898E+00  0.2099324E-04  0.0000000E+00 -0.8573247E-01
  0.7551020E+00  0.0000000E+00  0.2244898E+00  0.1843201E-04  0.0000000E+00 -0.8572541E-01
  0.7959183E+00  0.0000000E+00  0.2244898E+00  0.1552075E-04  0.0000000E+00 -0.8571931E-01
  0.8367347E+00  0.0000000E+00  0.2244898E+00  0.1230781E-04  0.0000000E+00 -0.8571431E-01
  0.8775510E+00  0.0000000E+00  0.2244898E+00  0.8847609E-05  0.0000000E+00 -0.8571049E-01
  0.9183673E+00  0.0000000E+00  0.2244898E+00  0.5201403E-05  0.0000000E+00 -0.8570794E-01
  0.9591837E+00  0.0000000E+00  0.2244898E+00  0.1433603E-05  0.0000000E+00 -0.8570671E-01
  0.1000000E+01  0.0000000E+00  0.2244898E+00 -0.2387676E-05  0.0000000E+00 -0.8570684E-01
  0.1040816E+01  0.0000000E+00  0.2244898E+00 -0.6194897E-05  0.0000000E+00 -0.8570832E-01
  0.1081633E+01  0.0000000E+00  0.2244898E+00 -0.9918384E-05  0.0000000E+00 -0.8571115E-01
  0.1122449E+01  0.0000000E+00  0.2244898E+00 -0.1349315E-04  0.0000000E+00 -0.8571529E-01
  0.1163265E+01  0.0000000E+00  0.2244898E+00 -0.1685268E-04  0.0000000E+00 -0.8572065E-01
  0.1204082E+01  0.0000000E+00  0.2244898E+00 -0.1993836E-04  0.0000000E+00 -0.8572717E-01
  0.1244898E+01  0.0000000E+00  0.2244898E+00 -0.2270025E-04  0.0000000E+00 -0.8573472E-01
  0.1285714E+01  0.0000000E+00  0.2244898E+00 -0.2508945E-04  0.0000000E+00 -0.8574319E-01
  0.1326531E+01  0.0000000E+00  0.2244898E+00 -0.2706688E-04  0.0000000E+00 -0.8575243E-01
  0.1367347E+01  0.0000000E+00  0.2244898E+00 -0.2860321E-04  0.0000000E+00 -0.8576230E-01
  0.1408163E+01  0.0000000E+00  0.2244898E+00 -0.2967704E-04  0.0000000E+00 -0.8577262E-01
  0.1448980E+01  0.0000000E+00  0.2244898E+00 -0.3027482E-04  0.0000000E+00 -0.8578322E-01
  0.1489796E+01  0.0000000E+00  0.2244898E+00 -0.3039140E-04  0.0000000E+00 -0.8579395E-01
  0.1530612E+01  0.0000000E+00  0.2244898E+00 -0.3002999E-04  0.0000000E+00 -0.8580463E-01
  0.1571429E+01  0.0000000E+00  0.2244898E+00 -0.2920171E-04  0.0000000E+00 -0.8581509E-01
  0.1612245E+01  0.0000000E+00  0.2244898E+00 -0.2792465E-04  0.0000000E+00 -0.8582517E-01
  0.1653061E+01  0.0000000E+00  0.2244898E+00 -0.2622328E-04  0.0000000E+00 -0.8583472E-01
  0.1693878E+01  0.0000000E+00  0.2244898E+00 -0.2412779E-04  0.0000000E+00 -0.8584360E-01
  0.1734694E+01  0.0000000E+00  0.2244898E+00 -0.2167339E-04  0.0000000E+00 -0.8585167E-01
  0.1775510E+01  0.0000000E+00  0.2244898E+00 -0.1889961E-04  0.0000000E+00 -0.8585881E-01
  0.1816326E+01  0.0000000E+00  0.2244898E+00 -0.1584980E-04  0.0000000E+00 -0.8586492E-01
  0.1857143E+01  0.0000000E+00  0.2244898E+00 -0.1257023E-04  0.0000000E+00 -0.8586992E-01
  0.1897959E+01  0.0000000E+00  0.2244898E+00 -0.9109145E-05  0.0000000E+00 -0.8587373E-01
  0.1938776E+01  0.0000000E+00  0.2244898E+00 -0.5517640E-05  0.0000000E+00 -0.8587630E-01
  0.1989796E+01  0.0000000E+00  0.2244898E+00 -0.1848159E-05  0.0000000E+00 -0.8587760E-01
  0.2040816E-01  0.0000000E+00  0.2653061E+00  0.1967227E-05  0.0000000E+00 -0.8585856E-01
  0.6122449E-01  0.0000000E+00  0.2653061E+00  0.5874421E-05  0.0000000E+00 -0.8585728E-01
  0.1020408E+00  0.0000000E+00  0.2653061E+00  0.9692315E-05  0.0000000E+00 -0.8585474E-01
  0.1428571E+00  0.0000000E+00  0.2653061E+00  0.1336073E-04  0.0000000E+00 -0.8585097E-01
  0.1836735E+00  0.0000000E+00  0.2653061E+00  0.1681961E-04  0.0000000E+00 -0.8584604E-01
  0.2244898E+00  0.0000000E+00  0.2653061E+00  0.2001397E-04  0.0000000E+00 -0.8584002E-01
  0.2653061E+00  0.0000000E+00  0.2653061E+00  0.2289362E-04  0.0000000E+00 -0.8583300E-01
  0.3061225E+00  0.0000000E+00  0.2653061E+00  0.2540772E-04  0.0000000E+00 -0.8582509E-01
  0.3469388E+00  0.0000000E+00  0.2653061E+00  0.2751148E-04  0.0000000E+00 -0.8581642E-01
  0.3877551E+00  0.0000000E+00  0.2653061E+00  0.2916661E-04  0.0000000E+00 -0.8580712E-01
  0.4285714E+00  0.0000000E+00  0.2653061E+00  0.3034049E-04  0.0000000E+00 -0.8579735E-01
  0.4693878E+00  0.0000000E+00  0.2653061E+00  0.3100682E-04  0.0000000E+00 -0.8578727E-01
  0.5102041E+00  0.0000000E+00  0.2653061E+00  0.3114687E-04  0.0000000E+00 -0.8577704E-01
  0.5510204E+00  0.0000000E+00  0.2653061E+00  0.3075045E-04  0.0000000E+00 -0.8576683E-01
  0.5918368E+00  0.0000000E+00  0.2653061E+00  0.2981641E-04  0.0000000E+00 -0.8575684E-01
  0.6326531E+00  0.0000000E+00  0.2653061E+00  0.2835295E-04  0.0000000E+00 -0.8574723E-01
  0.6734694E+00  0.0000000E+00  0.2653061E+00  0.2637787E-04  0.0000000E+00 -0.8573817E-01
  0.7142857E+00  0.0000000E+00  0.2653061E+00  0.2391869E-04  0.0000000E+00 -0.8572983E-01
  0.7551020E+00  0.0000000E+00  0.2653061E+00  0.2101265E-04  0.0000000E+00 -0.8572237E-01
  0.7959183E+00  0.0000000E+00  0.2653061E+00  0.1770639E-04  0.0000000E+00 -0.8571593E-01
  0.8367347E+00  0.0000000E+00  0.2653061E+00  0.1405490E-04  0.0000000E+00 -0.8571063E-01
  0.8775510E+00  0.0000000E+00  0.2653061E+00  0.1012017E-04  0.0000000E+00 -0.8570658E-01
  0.9183673E+00  0.0000000E+00  0.2653061E+00  0.5972251E-05  0.0000000E+00 -0.8570386E-01
  0.9591837E+00  0.0000000E+00  0.2653061E+00  0.1684826E-05  0.0000000E+00 -0.8570254E-01
  0.1000000E+01  0.0000000E+00  0.2653061E+00 -0.2664201E-05  0.0000000E+00 -0.8570264E-01
  0.1040816E+01  0.0000000E+00  0.2653061E+00 -0.6997239E-05  0.0000000E+00 -0.8570418E-01
  0.1081633E+01  0.0000000E+00  0.2653061E+00 -0.1123456E-04  0.0000000E+00 -0.8570713E-01
  0.1122449E+01  0.0000000E+00  0.2653061E+00 -0.1530147E-04  0.0000000E+00 -0.8571146E-01
  0.1163265E+01  0.0000000E+00  0.2653061E+00 -0.1912228E-04  0.0000000E+00 -0.8571709E-01
  0.1204082E+01  0.0000000E+00  0.2653061E+00 -0.2262991E-04  0.0000000E+00 -0.8572393E-01
  0.1244898E+01  0.0000000E+00  0.2653061E+00 -0.2576706E-04  0.0000000E+00 -0.8573186E-01
  0.1285714E+01  0.0000000E+00  0.2653061E+00 -0.2847848E-04  0.0000000E+00 -0.8574075E-01
  0.1326531E+01  0.0000000E+00  0.2653061E+00 -0.3071998E-04  0.0000000E+00 -0.8575045E-01