title = "dataset feddes"
variables = "x", "y", "z", "vx", "vy", "vz"
zone t = "velocities, solution time =  5.400E+01 days        " i =   49, j =   49, k =    1,  f=point
  0.2040816E-01  0.0000000E+00  0.2040816E-01  0.6163371E-06  0.0000000E+00 -0.8500559E-01
  0.6122449E-01  0.0000000E+00  0.2040816E-01  0.1840750E-05  0.0000000E+00 -0.8500280E-01
  0.1020408E+00  0.0000000E+00  0.2040816E-01  0.3032354E-05  0.0000000E+00 -0.8499727E-01
  0.1428571E+00  0.0000000E+00  0.2040816E-01  0.4167740E-05  0.0000000E+00 -0.8498909E-01
  0.1836735E+00  0.0000000E+00  0.2040816E-01  0.5231854E-05  0.0000000E+00 -0.8497842E-01
  0.2244898E+00  0.0000000E+00  0.2040816E-01  0.6204819E-05  0.0000000E+00 -0.8496544E-01
  0.2653061E+00  0.0000000E+00  0.2040816E-01  0.7066729E-05  0.0000000E+00 -0.8495037E-01
  0.3061225E+00  0.0000000E+00  0.2040816E-01  0.7799666E-05  0.0000000E+00 -0.8493349E-01
  0.3469388E+00  0.0000000E+00  0.2040816E-01  0.8388007E-05  0.0000000E+00 -0.8491512E-01
  0.3877551E+00  0.0000000E+00  0.2040816E-01  0.8818459E-05  0.0000000E+00 -0.8489558E-01
  0.4285714E+00  0.0000000E+00  0.2040816E-01  0.9080264E-05  0.0000000E+00 -0.8487527E-01
  0.4693878E+00  0.0000000E+00  0.2040816E-01  0.9165555E-05  0.0000000E+00 -0.8485455E-01
  0.5102041E+00  0.0000000E+00  0.2040816E-01  0.9069754E-05  0.0000000E+00 -0.8483386E-01
  0.5510204E+00  0.0000000E+00  0.2040816E-01  0.8791937E-05  0.0000000E+00 -0.8481358E-01
  0.5918368E+00  0.0000000E+00  0.2040816E-01  0.8335065E-05  0.0000000E+00 -0.8479414E-01
  0.6326531E+00  0.0000000E+00  0.2040816E-01  0.7706021E-05  0.0000000E+00 -0.8477593E-01
  0.6734694E+00  0.0000000E+00  0.2040816E-01  0.6915431E-05  0.0000000E+00 -0.8475934E-01
  0.7142857E+00  0.0000000E+00  0.2040816E-01  0.5977334E-05  0.0000000E+00 -0.8474471E-01
  0.7551020E+00  0.0000000E+00  0.2040816E-01  0.4908825E-05  0.0000000E+00 -0.8473235E-01
  0.7959183E+00  0.0000000E+00  0.2040816E-01  0.3729569E-05  0.0000000E+00 -0.8472255E-01
  0.8367347E+00  0.0000000E+00  0.2040816E-01  0.2461236E-05  0.0000000E+00 -0.8471552E-01
  0.8775510E+00  0.0000000E+00  0.2040816E-01  0.1126985E-05  0.0000000E+00 -0.8471145E-01
  0.9183673E+00  0.0000000E+00  0.2040816E-01 -0.2496116E-06  0.0000000E+00 -0.8471045E-01
  0.9591837E+00  0.0000000E+00  0.2040816E-01 -0.1641346E-05  0.0000000E+00 -0.8471260E-01
  0.1000000E+01  0.0000000E+00  0.2040816E-01 -0.3021131E-05  0.0000000E+00 -0.8471789E-01
  0.1040816E+01  0.0000000E+00  0.2040816E-01 -0.4360957E-05  0.0000000E+00 -0.8472627E-01
  0.1081633E+01  0.0000000E+00  0.2040816E-01 -0.5643717E-05  0.0000000E+00 -0.8473762E-01
  0.1122449E+01  0.0000000E+00  0.2040816E-01 -0.6847942E-05  0.0000000E+00 -0.8475180E-01
  0.1163265E+01  0.0000000E+00  0.2040816E-01 -0.7952165E-05  0.0000000E+00 -0.8476860E-01
  0.1204082E+01  0.0000000E+00  0.2040816E-01 -0.8938055E-05  0.0000000E+00 -0.8478777E-01
  0.1244898E+01  0.0000000E+00  0.2040816E-01 -0.9790655E-05  0.0000000E+00 -0.8480903E-01
  0.1285714E+01  0.0000000E+00  0.2040816E-01 -0.1049804E-04  0.0000000E+00 -0.8483206E-01
  0.1326531E+01  0.0000000E+00  0.2040816E-01 -0.1105100E-04  0.0000000E+00 -0.8485652E-01
  0.1367347E+01  0.0000000E+00  0.2040816E-01 -0.1144332E-04  0.0000000E+00 -0.8488205E-01
  0.1408163E+01  0.0000000E+00  0.2040816E-01 -0.1167132E-04  0.0000000E+00 -0.8490829E-01
  0.1448980E+01  0.0000000E+00  0.2040816E-01 -0.1173386E-04  0.0000000E+00 -0.8493486E-01
  0.1489796E+01  0.0000000E+00  0.2040816E-01 -0.1163237E-04  0.0000000E+00 -0.8496139E-01
  0.1530612E+01  0.0000000E+00  0.2040816E-01 -0.1137036E-04  0.0000000E+00 -0.8498750E-01
  0.1571429E+01  0.0000000E+00  0.2040816E-01 -0.1095364E-04  0.0000000E+00 -0.8501285E-01
  0.1612245E+01  0.0000000E+00  0.2040816E-01 -0.1039013E-04  0.0000000E+00 -0.8503708E-01
  0.1653061E+01  0.0000000E+00  0.2040816E-01 -0.9689226E-05  0.0000000E+00 -0.8505988E-01
  0.1693878E+01  0.0000000E+00  0.2040816E-01 -0.8861625E-05  0.0000000E+00 -0.8508095E-01
  0.1734694E+01  0.0000000E+00  0.2040816E-01 -0.7919522E-05  0.0000000E+00 -0.8510000E-01
  0.1775510E+01  0.0000000E+00  0.2040816E-01 -0.6876511E-05  0.0000000E+00 -0.8511680E-01
  0.1816326E+01  0.0000000E+00  0.2040816E-01 -0.5746859E-05  0.0000000E+00 -0.8513114E-01
  0.1857143E+01  0.0000000E+00  0.2040816E-01 -0.4545336E-05  0.0000000E+00 -0.8514283E-01
  0.1897959E+01  0.0000000E+00  0.2040816E-01 -0.3287576E-05  0.0000000E+00 -0.8515172E-01
  0.1938776E+01  0.0000000E+00  0.2040816E-01 -0.1989691E-05  0.0000000E+00 -0.8515771E-01
  0.1989796E+01  0.0000000E+00  0.2040816E-01 -0.6676451E-06  0.0000000E+00 -0.8516073E-01
  0.2040816E-01  0.0000000E+00  0.6122449E-01  0.1691302E-05  0.0000000E+00 -0.8500803E-01
  0.6122449E-01  0.0000000E+00  0.6122449E-01  0.5047615E-05  0.0000000E+00 -0.8500520E-01
  0.1020408E+00  0.0000000E+00  0.6122449E-01  0.8315427E-05  0.0000000E+00 -0.8499959E-01
  0.1428571E+00  0.0000000E+00  0.6122449E-01  0.1143125E-04  0.0000000E+00 -0.8499129E-01
  0.1836735E+00  0.0000000E+00  0.6122449E-01  0.1435123E-04  0.0000000E+00 -0.8498045E-01
  0.2244898E+00  0.0000000E+00  0.6122449E-01  0.1702106E-04  0.0000000E+00 -0.8496726E-01
  0.2653061E+00  0.0000000E+00  0.6122449E-01  0.1938669E-04  0.0000000E+00 -0.8495195E-01
  0.3061225E+00  0.0000000E+00  0.6122449E-01  0.2139915E-04  0.0000000E+00 -0.8493480E-01
  0.3469388E+00  0.0000000E+00  0.6122449E-01  0.2301552E-04  0.0000000E+00 -0.8491612E-01
  0.3877551E+00  0.0000000E+00  0.6122449E-01  0.2419914E-04  0.0000000E+00 -0.8489626E-01
  0.4285714E+00  0.0000000E+00  0.6122449E-01  0.2492025E-04  0.0000000E+00 -0.8487560E-01
  0.4693878E+00  0.0000000E+00  0.6122449E-01  0.2515701E-04  0.0000000E+00 -0.8485453E-01
  0.5102041E+00  0.0000000E+00  0.6122449E-01  0.2489661E-04  0.0000000E+00 -0.8483347E-01
  0.5510204E+00  0.0000000E+00  0.6122449E-01  0.2413635E-04  0.0000000E+00 -0.8481283E-01
  0.5918368E+00  0.0000000E+00  0.6122449E-01  0.2288427E-04  0.0000000E+00 -0.8479304E-01
  0.6326531E+00  0.0000000E+00  0.6122449E-01  0.2115936E-04  0.0000000E+00 -0.8477450E-01
  0.6734694E+00  0.0000000E+00  0.6122449E-01  0.1899091E-04  0.0000000E+00 -0.8475760E-01
  0.7142857E+00  0.0000000E+00  0.6122449E-01  0.1641758E-04  0.0000000E+00 -0.8474269E-01
  0.7551020E+00  0.0000000E+00  0.6122449E-01  0.1348632E-04  0.0000000E+00 -0.8473009E-01
  0.7959183E+00  0.0000000E+00  0.6122449E-01  0.1025110E-04  0.0000000E+00 -0.8472009E-01
  0.8367347E+00  0.0000000E+00  0.6122449E-01  0.6771160E-05  0.0000000E+00 -0.8471290E-01
  0.8775510E+00  0.0000000E+00  0.6122449E-01  0.3109029E-05  0.0000000E+00 -0.8470873E-01
  0.9183673E+00  0.0000000E+00  0.6122449E-01 -0.6685931E-06  0.0000000E+00 -0.8470768E-01
  0.9591837E+00  0.0000000E+00  0.6122449E-01 -0.4484916E-05  0.0000000E+00 -0.8470982E-01
  0.1000000E+01  0.0000000E+00  0.6122449E-01 -0.8269564E-05  0.0000000E+00 -0.8471515E-01
  0.1040816E+01  0.0000000E+00  0.6122449E-01 -0.1194638E-04  0.0000000E+00 -0.8472363E-01
  0.1081633E+01  0.0000000E+00  0.6122449E-01 -0.1546447E-04  0.0000000E+00 -0.8473512E-01
  0.1122449E+01  0.0000000E+00  0.6122449E-01 -0.1876577E-04  0.0000000E+00 -0.8474948E-01
  0.1163265E+01  0.0000000E+00  0.6122449E-01 -0.2179218E-04  0.0000000E+00 -0.8476650E-01
  0.1204082E+01  0.0000000E+00  0.6122449E-01 -0.2449368E-04  0.0000000E+00 -0.8478592E-01
  0.1244898E+01  0.0000000E+00  0.6122449E-01 -0.2682940E-04  0.0000000E+00 -0.8480746E-01
  0.1285714E+01  0.0000000E+00  0.6122449E-01 -0.2876683E-04  0.0000000E+00 -0.8483078E-01
  0.1326531E+01  0.0000000E+00  0.6122449E-01 -0.3028074E-04  0.0000000E+00 -0.8485556E-01
  0.1367347E+01  0.0000000E+00  0.6122449E-01 -0.3135405E-04  0.0000000E+00 -0.8488142E-01
  0.1408163E+01  0.0000000E+00  0.6122449E-01 -0.3197677E-04  0.0000000E+00 -0.8490799E-01
  0.1448980E+01  0.0000000E+00  0.6122449E-01 -0.3214600E-04  0.0000000E+00 -0.8493488E-01
  0.1489796E+01  0.0000000E+00  0.6122449E-01 -0.3186585E-04  0.0000000E+00 -0.8496174E-01
  0.1530612E+01  0.0000000E+00  0.6122449E-01 -0.3114624E-04  0.0000000E+00 -0.8498817E-01
  0.1571429E+01  0.0000000E+00  0.6122449E-01 -0.3000292E-04  0.0000000E+00 -0.8501381E-01
  0.1612245E+01  0.0000000E+00  0.6122449E-01 -0.2845753E-04  0.0000000E+00 -0.8503833E-01
  0.1653061E+01  0.0000000E+00  0.6122449E-01 -0.2653619E-04  0.0000000E+00 -0.8506140E-01
  0.1693878E+01  0.0000000E+00  0.6122449E-01 -0.2426845E-04  0.0000000E+00 -0.8508270E-01
  0.1734694E+01  0.0000000E+00  0.6122449E-01 -0.2168743E-04  0.0000000E+00 -0.8510197E-01
  0.1775510E+01  0.0000000E+00  0.6122449E-01 -0.1883017E-04  0.0000000E+00 -0.8511896E-01
  0.1816326E+01  0.0000000E+00  0.6122449E-01 -0.1573613E-04  0.0000000E+00 -0.8513345E-01
  0.1857143E+01  0.0000000E+00  0.6122449E-01 -0.1244587E-04  0.0000000E+00 -0.8514527E-01
  0.1897959E+01  0.0000000E+00  0.6122449E-01 -0.9001812E-05  0.0000000E+00 -0.8515426E-01
  0.1938776E+01  0.0000000E+00  0.6122449E-01 -0.5447720E-05  0.0000000E+00 -0.8516032E-01
  0.1989796E+01  0.0000000E+00  0.6122449E-01 -0.1826840E-05  0.0000000E+00 -0.8516337E-01
  0.2040816E-01  0.0000000E+00  0.1020408E+00  0.2543909E-05  0.0000000E+00 -0.8501229E-01
  0.6122449E-01  0.0000000E+00  0.1020408E+00  0.7587664E-05  0.0000000E+00 -0.8500938E-01
  0.1020408E+00  0.0000000E+00  0.1020408E+00  0.1250054E-04  0.0000000E+00 -0.8500362E-01
  0.1428571E+00  0.0000000E+00  0.1020408E+00  0.1718897E-04  0.0000000E+00 -0.8499510E-01
  0.1836735E+00  0.0000000E+00  0.1020408E+00  0.2158299E-04  0.0000000E+00 -0.8498397E-01
  0.2244898E+00  0.0000000E+00  0.1020408E+00  0.2560128E-04  0.0000000E+00 -0.8497042E-01
  0.2653061E+00  0.0000000E+00  0.1020408E+00  0.2916351E-04  0.0000000E+00 -0.8495470E-01
  0.3061225E+00  0.0000000E+00  0.1020408E+00  0.3219639E-04  0.0000000E+00 -0.8493707E-01
  0.3469388E+00  0.0000000E+00  0.1020408E+00  0.3463512E-04  0.0000000E+00 -0.8491787E-01
  0.3877551E+00  0.0000000E+00  0.1020408E+00  0.3642406E-04  0.0000000E+00 -0.8489744E-01
  0.4285714E+00  0.0000000E+00  0.1020408E+00  0.3751771E-04  0.0000000E+00 -0.8487618E-01
  0.4693878E+00  0.0000000E+00  0.1020408E+00  0.3788238E-04  0.0000000E+00 -0.8485448E-01
  0.5102041E+00  0.0000000E+00  0.1020408E+00  0.3749805E-04  0.0000000E+00 -0.8483279E-01
  0.5510204E+00  0.0000000E+00  0.1020408E+00  0.3636006E-04  0.0000000E+00 -0.8481152E-01
  0.5918368E+00  0.0000000E+00  0.1020408E+00  0.3448038E-04  0.0000000E+00 -0.8479112E-01
  0.6326531E+00  0.0000000E+00  0.1020408E+00  0.3188779E-04  0.0000000E+00 -0.8477200E-01
  0.6734694E+00  0.0000000E+00  0.1020408E+00  0.2862696E-04  0.0000000E+00 -0.8475455E-01
  0.7142857E+00  0.0000000E+00  0.1020408E+00  0.2475647E-04  0.0000000E+00 -0.8473916E-01
  0.7551020E+00  0.0000000E+00  0.1020408E+00  0.2034700E-04  0.0000000E+00 -0.8472614E-01
  0.7959183E+00  0.0000000E+00  0.1020408E+00  0.1547952E-04  0.0000000E+00 -0.8471578E-01
  0.8367347E+00  0.0000000E+00  0.1020408E+00  0.1024257E-04  0.0000000E+00 -0.8470833E-01
  0.8775510E+00  0.0000000E+00  0.1020408E+00  0.4730260E-05  0.0000000E+00 -0.8470396E-01
  0.9183673E+00  0.0000000E+00  0.1020408E+00 -0.9553875E-06  0.0000000E+00 -0.8470282E-01
  0.9591837E+00  0.0000000E+00  0.1020408E+00 -0.6695073E-05  0.0000000E+00 -0.8470495E-01
  0.1000000E+01  0.0000000E+00  0.1020408E+00 -0.1238746E-04  0.0000000E+00 -0.8471037E-01
  0.1040816E+01  0.0000000E+00  0.1020408E+00 -0.1791998E-04  0.0000000E+00 -0.8471901E-01
  0.1081633E+01  0.0000000E+00  0.1020408E+00 -0.2320848E-04  0.0000000E+00 -0.8473076E-01
  0.1122449E+01  0.0000000E+00  0.1020408E+00 -0.2816770E-04  0.0000000E+00 -0.8474544E-01
  0.1163265E+01  0.0000000E+00  0.1020408E+00 -0.3271204E-04  0.0000000E+00 -0.8476284E-01
  0.1204082E+01  0.0000000E+00  0.1020408E+00 -0.3676679E-04  0.0000000E+00 -0.8478269E-01
  0.1244898E+01  0.0000000E+00  0.1020408E+00 -0.4027066E-04  0.0000000E+00 -0.8480471E-01
  0.1285714E+01  0.0000000E+00  0.1020408E+00 -0.4317536E-04  0.0000000E+00 -0.8482856E-01
  0.1326531E+01  0.0000000E+00  0.1020408E+00 -0.4544325E-04  0.0000000E+00 -0.8485388E-01
  0.1367347E+01  0.0000000E+00  0.1020408E+00 -0.4704882E-04  0.0000000E+00 -0.8488031E-01
  0.1408163E+01  0.0000000E+00  0.1020408E+00 -0.4797743E-04  0.0000000E+00 -0.8490745E-01
  0.1448980E+01  0.0000000E+00  0.1020408E+00 -0.4822499E-04  0.0000000E+00 -0.8493492E-01
  0.1489796E+01  0.0000000E+00  0.1020408E+00 -0.4779824E-04  0.0000000E+00 -0.8496234E-01
  0.1530612E+01  0.0000000E+00  0.1020408E+00 -0.4671284E-04  0.0000000E+00 -0.8498932E-01
  0.1571429E+01  0.0000000E+00  0.1020408E+00 -0.4499256E-04  0.0000000E+00 -0.8501549E-01
  0.1612245E+01  0.0000000E+00  0.1020408E+00 -0.4266970E-04  0.0000000E+00 -0.8504050E-01
  0.1653061E+01  0.0000000E+00  0.1020408E+00 -0.3978388E-04  0.0000000E+00 -0.8506402E-01
  0.1693878E+01  0.0000000E+00  0.1020408E+00 -0.3638021E-04  0.0000000E+00 -0.8508575E-01
  0.1734694E+01  0.0000000E+00  0.1020408E+00 -0.3250812E-04  0.0000000E+00 -0.8510539E-01
  0.1775510E+01  0.0000000E+00  0.1020408E+00 -0.2822259E-04  0.0000000E+00 -0.8512271E-01
  0.1816326E+01  0.0000000E+00  0.1020408E+00 -0.2358319E-04  0.0000000E+00 -0.8513748E-01
  0.1857143E+01  0.0000000E+00  0.1020408E+00 -0.1865126E-04  0.0000000E+00 -0.8514952E-01
  0.1897959E+01  0.0000000E+00  0.1020408E+00 -0.1348967E-04  0.0000000E+00 -0.8515868E-01
  0.1938776E+01  0.0000000E+00  0.1020408E+00 -0.8162906E-05  0.0000000E+00 -0.8516485E-01
  0.1989796E+01  0.0000000E+00  0.1020408E+00 -0.2735497E-05  0.0000000E+00 -0.8516795E-01
  0.2040816E-01  0.0000000E+00  0.1428571E+00  0.3293845E-05  0.0000000E+00 -0.8501809E-01
  0.6122449E-01  0.0000000E+00  0.1428571E+00  0.9822792E-05  0.0000000E+00 -0.8501508E-01
  0.1020408E+00  0.0000000E+00  0.1428571E+00  0.1618407E-04  0.0000000E+00 -0.8500912E-01
  0.1428571E+00  0.0000000E+00  0.1428571E+00  0.2225906E-04  0.0000000E+00 -0.8500030E-01
  0.1836735E+00  0.0000000E+00  0.1428571E+00  0.2795433E-04  0.0000000E+00 -0.8498878E-01
  0.2244898E+00  0.0000000E+00  0.1428571E+00  0.3316503E-04  0.0000000E+00 -0.8497475E-01
  0.2653061E+00  0.0000000E+00  0.1428571E+00  0.3778804E-04  0.0000000E+00 -0.8495845E-01
  0.3061225E+00  0.0000000E+00  0.1428571E+00  0.4172866E-04  0.0000000E+00 -0.8494018E-01
  0.3469388E+00  0.0000000E+00  0.1428571E+00  0.4490258E-04  0.0000000E+00 -0.8492026E-01
  0.3877551E+00  0.0000000E+00  0.1428571E+00  0.4723675E-04  0.0000000E+00 -0.8489906E-01
  0.4285714E+00  0.0000000E+00  0.1428571E+00  0.4867091E-04  0.0000000E+00 -0.8487697E-01
  0.4693878E+00  0.0000000E+00  0.1428571E+00  0.4915983E-04  0.0000000E+00 -0.8485442E-01
  0.5102041E+00  0.0000000E+00  0.1428571E+00  0.4867592E-04  0.0000000E+00 -0.8483186E-01
  0.5510204E+00  0.0000000E+00  0.1428571E+00  0.4721196E-04  0.0000000E+00 -0.8480973E-01
  0.5918368E+00  0.0000000E+00  0.1428571E+00  0.4478310E-04  0.0000000E+00 -0.8478848E-01
  0.6326531E+00  0.0000000E+00  0.1428571E+00  0.4142730E-04  0.0000000E+00 -0.8476856E-01
  0.6734694E+00  0.0000000E+00  0.1428571E+00  0.3720381E-04  0.0000000E+00 -0.8475038E-01
  0.7142857E+00  0.0000000E+00  0.1428571E+00  0.3218951E-04  0.0000000E+00 -0.8473432E-01
  0.7551020E+00  0.0000000E+00  0.1428571E+00  0.2647594E-04  0.0000000E+00 -0.8472072E-01
  0.7959183E+00  0.0000000E+00  0.1428571E+00  0.2016718E-04  0.0000000E+00 -0.8470988E-01
  0.8367347E+00  0.0000000E+00  0.1428571E+00  0.1337682E-04  0.0000000E+00 -0.8470206E-01
  0.8775510E+00  0.0000000E+00  0.1428571E+00  0.6228986E-05  0.0000000E+00 -0.8469744E-01
  0.9183673E+00  0.0000000E+00  0.1428571E+00 -0.1143982E-05  0.0000000E+00 -0.8469616E-01
  0.9591837E+00  0.0000000E+00  0.1428571E+00 -0.8583821E-05  0.0000000E+00 -0.8469829E-01
  0.1000000E+01  0.0000000E+00  0.1428571E+00 -0.1595927E-04  0.0000000E+00 -0.8470382E-01
  0.1040816E+01  0.0000000E+00  0.1428571E+00 -0.2312832E-04  0.0000000E+00 -0.8471270E-01
  0.1081633E+01  0.0000000E+00  0.1428571E+00 -0.2997305E-04  0.0000000E+00 -0.8472478E-01
  0.1122449E+01  0.0000000E+00  0.1428571E+00 -0.3638610E-04  0.0000000E+00 -0.8473990E-01
  0.1163265E+01  0.0000000E+00  0.1428571E+00 -0.4225922E-04  0.0000000E+00 -0.8475783E-01
  0.1204082E+01  0.0000000E+00  0.1428571E+00 -0.4749658E-04  0.0000000E+00 -0.8477828E-01
  0.1244898E+01  0.0000000E+00  0.1428571E+00 -0.5201887E-04  0.0000000E+00 -0.8480097E-01
  0.1285714E+01  0.0000000E+00  0.1428571E+00 -0.5576425E-04  0.0000000E+00 -0.8482553E-01
  0.1326531E+01  0.0000000E+00  0.1428571E+00 -0.5868480E-04  0.0000000E+00 -0.8485160E-01
  0.1367347E+01  0.0000000E+00  0.1428571E+00 -0.6074811E-04  0.0000000E+00 -0.8487879E-01
  0.1408163E+01  0.0000000E+00  0.1428571E+00 -0.6193605E-04  0.0000000E+00 -0.8490672E-01
  0.1448980E+01  0.0000000E+00  0.1428571E+00 -0.6224387E-04  0.0000000E+00 -0.8493498E-01
  0.1489796E+01  0.0000000E+00  0.1428571E+00 -0.6168087E-04  0.0000000E+00 -0.8496316E-01
  0.1530612E+01  0.0000000E+00  0.1428571E+00 -0.6026852E-04  0.0000000E+00 -0.8499089E-01
  0.1571429E+01  0.0000000E+00  0.1428571E+00 -0.5803838E-04  0.0000000E+00 -0.8501777E-01
  0.1612245E+01  0.0000000E+00  0.1428571E+00 -0.5503217E-04  0.0000000E+00 -0.8504346E-01
  0.1653061E+01  0.0000000E+00  0.1428571E+00 -0.5130121E-04  0.0000000E+00 -0.8506760E-01
  0.1693878E+01  0.0000000E+00  0.1428571E+00 -0.4690463E-04  0.0000000E+00 -0.8508989E-01
  0.1734694E+01  0.0000000E+00  0.1428571E+00 -0.4190675E-04  0.0000000E+00 -0.8511004E-01
  0.1775510E+01  0.0000000E+00  0.1428571E+00 -0.3637763E-04  0.0000000E+00 -0.8512780E-01
  0.1816326E+01  0.0000000E+00  0.1428571E+00 -0.3039391E-04  0.0000000E+00 -0.8514294E-01
  0.1857143E+01  0.0000000E+00  0.1428571E+00 -0.2403545E-04  0.0000000E+00 -0.8515529E-01
  0.1897959E+01  0.0000000E+00  0.1428571E+00 -0.1738298E-04  0.0000000E+00 -0.8516467E-01
  0.1938776E+01  0.0000000E+00  0.1428571E+00 -0.1051794E-04  0.0000000E+00 -0.8517100E-01
  0.1989796E+01  0.0000000E+00  0.1428571E+00 -0.3523493E-05  0.0000000E+00 -0.8517418E-01
  0.2040816E-01  0.0000000E+00  0.1836735E+00  0.3982518E-05  0.0000000E+00 -0.8502528E-01
  0.6122449E-01  0.0000000E+00  0.1836735E+00  0.1187628E-04  0.0000000E+00 -0.8502215E-01
  0.1020408E+00  0.0000000E+00  0.1836735E+00  0.1956943E-04  0.0000000E+00 -0.8501594E-01
  0.1428571E+00  0.0000000E+00  0.1836735E+00  0.2692117E-04  0.0000000E+00 -0.8500675E-01
  0.1836735E+00  0.0000000E+00  0.1836735E+00  0.3381687E-04  0.0000000E+00 -0.8499475E-01
  0.2244898E+00  0.0000000E+00  0.1836735E+00  0.4013042E-04  0.0000000E+00 -0.8498012E-01
  0.2653061E+00  0.0000000E+00  0.1836735E+00  0.4573801E-04  0.0000000E+00 -0.8496312E-01
  0.3061225E+00  0.0000000E+00  0.1836735E+00  0.5052529E-04  0.0000000E+00 -0.8494405E-01
  0.3469388E+00  0.0000000E+00  0.1836735E+00  0.5438957E-04  0.0000000E+00 -0.8492324E-01
  0.3877551E+00  0.0000000E+00  0.1836735E+00  0.5724105E-04  0.0000000E+00 -0.8490107E-01
  0.4285714E+00  0.0000000E+00  0.1836735E+00  0.5900473E-04  0.0000000E+00 -0.8487797E-01
  0.4693878E+00  0.0000000E+00  0.1836735E+00  0.5962316E-04  0.0000000E+00 -0.8485436E-01
  0.5102041E+00  0.0000000E+00  0.1836735E+00  0.5906008E-04  0.0000000E+00 -0.8483071E-01
  0.5510204E+00  0.0000000E+00  0.1836735E+00  0.5730445E-04  0.0000000E+00 -0.8480750E-01
  0.5918368E+00  0.0000000E+00  0.1836735E+00  0.5437388E-04  0.0000000E+00 -0.8478520E-01
  0.6326531E+00  0.0000000E+00  0.1836735E+00  0.5031586E-04  0.0000000E+00 -0.8476429E-01
  0.6734694E+00  0.0000000E+00  0.1836735E+00  0.4520504E-04  0.0000000E+00 -0.8474518E-01
  0.7142857E+00  0.0000000E+00  0.1836735E+00  0.3913649E-04  0.0000000E+00 -0.8472829E-01
  0.7551020E+00  0.0000000E+00  0.1836735E+00  0.3222069E-04  0.0000000E+00 -0.8471397E-01
  0.7959183E+00  0.0000000E+00  0.1836735E+00  0.2458175E-04  0.0000000E+00 -0.8470253E-01
  0.8367347E+00  0.0000000E+00  0.1836735E+00  0.1635492E-04  0.0000000E+00 -0.8469424E-01
  0.8775510E+00  0.0000000E+00  0.1836735E+00  0.7692727E-05  0.0000000E+00 -0.8468930E-01
  0.9183673E+00  0.0000000E+00  0.1836735E+00 -0.1243150E-05  0.0000000E+00 -0.8468786E-01
  0.9591837E+00  0.0000000E+00  0.1836735E+00 -0.1025658E-04  0.0000000E+00 -0.8468999E-01
  0.1000000E+01  0.0000000E+00  0.1836735E+00 -0.1918430E-04  0.0000000E+00 -0.8469567E-01
  0.1040816E+01  0.0000000E+00  0.1836735E+00 -0.2786106E-04  0.0000000E+00 -0.8470484E-01
  0.1081633E+01  0.0000000E+00  0.1836735E+00 -0.3613408E-04  0.0000000E+00 -0.8471736E-01
  0.1122449E+01  0.0000000E+00  0.1836735E+00 -0.4387706E-04  0.0000000E+00 -0.8473303E-01
  0.1163265E+01  0.0000000E+00  0.1836735E+00 -0.5096248E-04  0.0000000E+00 -0.8475161E-01
  0.1204082E+01  0.0000000E+00  0.1836735E+00 -0.5727634E-04  0.0000000E+00 -0.8477281E-01
  0.1244898E+01  0.0000000E+00  0.1836735E+00 -0.6272294E-04  0.0000000E+00 -0.8479632E-01
  0.1285714E+01  0.0000000E+00  0.1836735E+00 -0.6722812E-04  0.0000000E+00 -0.8482177E-01
  0.1326531E+01  0.0000000E+00  0.1836735E+00 -0.7073504E-04  0.0000000E+00 -0.8484877E-01
  0.1367347E+01  0.0000000E+00  0.1836735E+00 -0.7320553E-04  0.0000000E+00 -0.8487693E-01
  0.1408163E+01  0.0000000E+00  0.1836735E+00 -0.7461917E-04  0.0000000E+00 -0.8490583E-01
  0.1448980E+01  0.0000000E+00  0.1836735E+00 -0.7497136E-04  0.0000000E+00 -0.8493505E-01
  0.1489796E+01  0.0000000E+00  0.1836735E+00 -0.7427416E-04  0.0000000E+00 -0.8496419E-01
  0.1530612E+01  0.0000000E+00  0.1836735E+00 -0.7255478E-04  0.0000000E+00 -0.8499284E-01
  0.1571429E+01  0.0000000E+00  0.1836735E+00 -0.6985278E-04  0.0000000E+00 -0.8502060E-01
  0.1612245E+01  0.0000000E+00  0.1836735E+00 -0.6621918E-04  0.0000000E+00 -0.8504712E-01
  0.1653061E+01  0.0000000E+00  0.1836735E+00 -0.6171587E-04  0.0000000E+00 -0.8507203E-01
  0.1693878E+01  0.0000000E+00  0.1836735E+00 -0.5641472E-04  0.0000000E+00 -0.8509502E-01
  0.1734694E+01  0.0000000E+00  0.1836735E+00 -0.5039430E-04  0.0000000E+00 -0.8511580E-01
  0.1775510E+01  0.0000000E+00  0.1836735E+00 -0.4373847E-04  0.0000000E+00 -0.8513410E-01
  0.1816326E+01  0.0000000E+00  0.1836735E+00 -0.3653853E-04  0.0000000E+00 -0.8514970E-01
  0.1857143E+01  0.0000000E+00  0.1836735E+00 -0.2889084E-04  0.0000000E+00 -0.8516241E-01
  0.1897959E+01  0.0000000E+00  0.1836735E+00 -0.2089275E-04  0.0000000E+00 -0.8517208E-01
  0.1938776E+01  0.0000000E+00  0.1836735E+00 -0.1264068E-04  0.0000000E+00 -0.8517859E-01
  0.1989796E+01  0.0000000E+00  0.1836735E+00 -0.4234162E-05  0.0000000E+00 -0.8518187E-01
  0.2040816E-01  0.0000000E+00  0.2244898E+00  0.4634351E-05  0.0000000E+00 -0.8503378E-01
  0.6122449E-01  0.0000000E+00  0.2244898E+00  0.1382070E-04  0.0000000E+00 -0.8503050E-01
  0.1020408E+00  0.0000000E+00  0.2244898E+00  0.2277636E-04  0.0000000E+00 -0.8502400E-01
  0.1428571E+00  0.0000000E+00  0.2244898E+00  0.3134037E-04  0.0000000E+00 -0.8501439E-01
  0.1836735E+00  0.0000000E+00  0.2244898E+00  0.3937855E-04  0.0000000E+00 -0.8500181E-01
  0.2244898E+00  0.0000000E+00  0.2244898E+00  0.4674518E-04  0.0000000E+00 -0.8498648E-01
  0.2653061E+00  0.0000000E+00  0.2244898E+00  0.5329713E-04  0.0000000E+00 -0.8496866E-01
  0.3061225E+00  0.0000000E+00  0.2244898E+00  0.5890144E-04  0.0000000E+00 -0.8494865E-01
  0.3469388E+00  0.0000000E+00  0.2244898E+00  0.6343766E-04  0.0000000E+00 -0.8492679E-01
  0.3877551E+00  0.0000000E+00  0.2244898E+00  0.6679926E-04  0.0000000E+00 -0.8490349E-01
  0.4285714E+00  0.0000000E+00  0.2244898E+00  0.6889584E-04  0.0000000E+00 -0.8487917E-01
  0.4693878E+00  0.0000000E+00  0.2244898E+00  0.6965637E-04  0.0000000E+00 -0.8485430E-01
  0.5102041E+00  0.0000000E+00  0.2244898E+00  0.6903379E-04  0.0000000E+00 -0.8482936E-01
  0.5510204E+00  0.0000000E+00  0.2244898E+00  0.6701090E-04  0.0000000E+00 -0.8480486E-01
  0.5918368E+00  0.0000000E+00  0.2244898E+00  0.6360660E-04  0.0000000E+00 -0.8478131E-01
  0.6326531E+00  0.0000000E+00  0.2244898E+00  0.5887935E-04  0.0000000E+00 -0.8475921E-01
  0.6734694E+00  0.0000000E+00  0.2244898E+00  0.5292287E-04  0.0000000E+00 -0.8473902E-01
  0.7142857E+00  0.0000000E+00  0.2244898E+00  0.4585156E-04  0.0000000E+00 -0.8472114E-01
  0.7551020E+00  0.0000000E+00  0.2244898E+00  0.3779302E-04  0.0000000E+00 -0.8470597E-01
  0.7959183E+00  0.0000000E+00  0.2244898E+00  0.2888785E-04  0.0000000E+00 -0.8469382E-01
  0.8367347E+00  0.0000000E+00  0.2244898E+00  0.1928935E-04  0.0000000E+00 -0.8468497E-01
  0.8775510E+00  0.0000000E+00  0.2244898E+00  0.9176481E-05  0.0000000E+00 -0.8467965E-01
  0.9183673E+00  0.0000000E+00  0.2244898E+00 -0.1258347E-05  0.0000000E+00 -0.8467802E-01
  0.9591837E+00  0.0000000E+00  0.2244898E+00 -0.1177897E-04  0.0000000E+00 -0.8468015E-01
  0.1000000E+01  0.0000000E+00  0.2244898E+00 -0.2218542E-04  0.0000000E+00 -0.8468602E-01
  0.1040816E+01  0.0000000E+00  0.2244898E+00 -0.3229376E-04  0.0000000E+00 -0.8469554E-01
  0.1081633E+01  0.0000000E+00  0.2244898E+00 -0.4191828E-04  0.0000000E+00 -0.8470857E-01
  0.1122449E+01  0.0000000E+00  0.2244898E+00 -0.5091508E-04  0.0000000E+00 -0.8472490E-01
  0.1163265E+01  0.0000000E+00  0.2244898E+00 -0.5913943E-04  0.0000000E+00 -0.8474426E-01
  0.1204082E+01  0.0000000E+00  0.2244898E+00 -0.6646137E-04  0.0000000E+00 -0.8476636E-01
  0.1244898E+01  0.0000000E+00  0.2244898E+00 -0.7277043E-04  0.0000000E+00 -0.8479084E-01
  0.1285714E+01  0.0000000E+00  0.2244898E+00 -0.7798096E-04  0.0000000E+00 -0.8481734E-01
  0.1326531E+01  0.0000000E+00  0.2244898E+00 -0.8202815E-04  0.0000000E+00 -0.8484545E-01
  0.1367347E+01  0.0000000E+00  0.2244898E+00 -0.8486889E-04  0.0000000E+00 -0.8487474E-01
  0.1408163E+01  0.0000000E+00  0.2244898E+00 -0.8648141E-04  0.0000000E+00 -0.8490478E-01
  0.1448980E+01  0.0000000E+00  0.2244898E+00 -0.8686237E-04  0.0000000E+00 -0.8493515E-01
  0.1489796E+01  0.0000000E+00  0.2244898E+00 -0.8602711E-04  0.0000000E+00 -0.8496541E-01
  0.1530612E+01  0.0000000E+00  0.2244898E+00 -0.8400882E-04  0.0000000E+00 -0.8499514E-01
  0.1571429E+01  0.0000000E+00  0.2244898E+00 -0.8085526E-04  0.0000000E+00 -0.8502394E-01
  0.1612245E+01  0.0000000E+00  0.2244898E+00 -0.7662698E-04  0.0000000E+00 -0.8505143E-01
  0.1653061E+01  0.0000000E+00  0.2244898E+00 -0.7139619E-04  0.0000000E+00 -0.8507724E-01
  0.1693878E+01  0.0000000E+00  0.2244898E+00 -0.6524646E-04  0.0000000E+00 -0.8510105E-01
  0.1734694E+01  0.0000000E+00  0.2244898E+00 -0.5827000E-04  0.0000000E+00 -0.8512256E-01
  0.1775510E+01  0.0000000E+00  0.2244898E+00 -0.5056421E-04  0.0000000E+00 -0.8514150E-01
  0.1816326E+01  0.0000000E+00  0.2244898E+00 -0.4223344E-04  0.0000000E+00 -0.8515764E-01
  0.1857143E+01  0.0000000E+00  0.2244898E+00 -0.3338854E-04  0.0000000E+00 -0.8517078E-01
  0.1897959E+01  0.0000000E+00  0.2244898E+00 -0.2414237E-04  0.0000000E+00 -0.8518078E-01
  0.1938776E+01  0.0000000E+00  0.2244898E+00 -0.1460546E-04  0.0000000E+00 -0.8518751E-01
  0.1989796E+01  0.0000000E+00  0.2244898E+00 -0.4892197E-05  0.0000000E+00 -0.8519090E-01
  0.2040816E-01  0.0000000E+00  0.2653061E+00  0.5265833E-05  0.0000000E+00 -0.8504353E-01
  0.6122449E-01  0.0000000E+00  0.2653061E+00  0.1570513E-04  0.0000000E+00 -0.8504009E-01
  0.1020408E+00  0.0000000E+00  0.2653061E+00  0.2588591E-04  0.0000000E+00 -0.8503326E-01
  0.1428571E+00  0.0000000E+00  0.2653061E+00  0.3562856E-04  0.0000000E+00 -0.8502316E-01
  0.1836735E+00  0.0000000E+00  0.2653061E+00  0.4478065E-04  0.0000000E+00 -0.8500994E-01
  0.2244898E+00  0.0000000E+00  0.2653061E+00  0.5317799E-04  0.0000000E+00 -0.8499381E-01
  0.2653061E+00  0.0000000E+00  0.2653061E+00  0.6065913E-04  0.0000000E+00 -0.8497505E-01
  0.3061225E+00  0.0000000E+00  0.2653061E+00  0.6707316E-04  0.0000000E+00 -0.8495396E-01
  0.3469388E+00  0.0000000E+00  0.2653061E+00  0.7228214E-04  0.0000000E+00 -0.8493091E-01
  0.3877551E+00  0.0000000E+00  0.2653061E+00  0.7616255E-04  0.0000000E+00 -0.8490631E-01
  0.4285714E+00  0.0000000E+00  0.2653061E+00  0.7860751E-04  0.0000000E+00 -0.8488060E-01
  0.4693878E+00  0.0000000E+00  0.2653061E+00  0.7953036E-04  0.0000000E+00 -0.8485427E-01
  0.5102041E+00  0.0000000E+00  0.2653061E+00  0.7886986E-04  0.0000000E+00 -0.8482783E-01
  0.5510204E+00  0.0000000E+00  0.2653061E+00  0.7659831E-04  0.0000000E+00 -0.8480184E-01
  0.5918368E+00  0.0000000E+00  0.2653061E+00  0.7273284E-04  0.0000000E+00 -0.8477684E-01
  0.6326531E+00  0.0000000E+00  0.2653061E+00  0.6734571E-04  0.0000000E+00 -0.8475337E-01
  0.6734694E+00  0.0000000E+00  0.2653061E+00  0.6055985E-04  0.0000000E+00 -0.8473192E-01
  0.7142857E+00  0.0000000E+00  0.2653061E+00  0.5251176E-04  0.0000000E+00 -0.8471292E-01
  0.7551020E+00  0.0000000E+00  0.2653061E+00  0.4334293E-04  0.0000000E+00 -0.8469676E-01
  0.7959183E+00  0.0000000E+00  0.2653061E+00  0.3320494E-04  0.0000000E+00 -0.8468378E-01
  0.8367347E+00  0.0000000E+00  0.2653061E+00  0.2226375E-04  0.0000000E+00 -0.8467428E-01
  0.8775510E+00  0.0000000E+00  0.2653061E+00  0.1072153E-04  0.0000000E+00 -0.8466852E-01
  0.9183673E+00  0.0000000E+00  0.2653061E+00 -0.1194733E-05  0.0000000E+00 -0.8466667E-01
  0.9591837E+00  0.0000000E+00  0.2653061E+00 -0.1320076E-04  0.0000000E+00 -0.8466881E-01
  0.1000000E+01  0.0000000E+00  0.2653061E+00 -0.2505567E-04  0.0000000E+00 -0.8467491E-01
  0.1040816E+01  0.0000000E+00  0.2653061E+00 -0.3655310E-04  0.0000000E+00 -0.8468486E-01
  0.1081633E+01  0.0000000E+00  0.2653061E+00 -0.4748557E-04  0.0000000E+00 -0.8469849E-01
  0.1122449E+01  0.0000000E+00  0.2653061E+00 -0.5769224E-04  0.0000000E+00 -0.8471558E-01
  0.1163265E+01  0.0000000E+00  0.2653061E+00 -0.6701181E-04  0.0000000E+00 -0.8473585E-01
  0.1204082E+01  0.0000000E+00  0.2653061E+00 -0.7529941E-04  0.0000000E+00 -0.8475897E-01
  0.1244898E+01  0.0000000E+00  0.2653061E+00 -0.8243092E-04  0.0000000E+00 -0.8478458E-01
  0.1285714E+01  0.0000000E+00  0.2653061E+00 -0.8830984E-04  0.0000000E+00 -0.8481229E-01
  0.1326531E+01  0.0000000E+00  0.2653061E+00 -0.9286425E-04  0.0000000E+00 -0.8484166E-01