title = "dataset feddes"
variables = "x", "y", "z", "vx", "vy", "vz"
zone t = "velocities, solution time =  3.100E+01 days        " i =   49, j =   49, k =    1,  f=point
  0.2040816E-01  0.0000000E+00  0.2040816E-01  0.2955255E-06  0.0000000E+00 -0.8569984E-01
  0.6122449E-01  0.0000000E+00  0.2040816E-01  0.8819595E-06  0.0000000E+00 -0.8569850E-01
  0.1020408E+00  0.0000000E+00  0.2040816E-01  0.1455371E-05  0.0000000E+00 -0.8569585E-01
  0.1428571E+00  0.0000000E+00  0.2040816E-01  0.2005440E-05  0.0000000E+00 -0.8569191E-01
  0.1836735E+00  0.0000000E+00  0.2040816E-01  0.2522229E-05  0.0000000E+00 -0.8568677E-01
  0.2244898E+00  0.0000000E+00  0.2040816E-01  0.2998911E-05  0.0000000E+00 -0.8568049E-01
  0.2653061E+00  0.0000000E+00  0.2040816E-01  0.3427064E-05  0.0000000E+00 -0.8567319E-01
  0.3061225E+00  0.0000000E+00  0.2040816E-01  0.3798288E-05  0.0000000E+00 -0.8566498E-01
  0.3469388E+00  0.0000000E+00  0.2040816E-01  0.4106631E-05  0.0000000E+00 -0.8565599E-01
  0.3877551E+00  0.0000000E+00  0.2040816E-01  0.4346647E-05  0.0000000E+00 -0.8564639E-01
  0.4285714E+00  0.0000000E+00  0.2040816E-01  0.4513347E-05  0.0000000E+00 -0.8563632E-01
  0.4693878E+00  0.0000000E+00  0.2040816E-01  0.4602913E-05  0.0000000E+00 -0.8562596E-01
  0.5102041E+00  0.0000000E+00  0.2040816E-01  0.4612930E-05  0.0000000E+00 -0.8561548E-01
  0.5510204E+00  0.0000000E+00  0.2040816E-01  0.4542315E-05  0.0000000E+00 -0.8560508E-01
  0.5918368E+00  0.0000000E+00  0.2040816E-01  0.4391305E-05  0.0000000E+00 -0.8559493E-01
  0.6326531E+00  0.0000000E+00  0.2040816E-01  0.4161506E-05  0.0000000E+00 -0.8558521E-01
  0.6734694E+00  0.0000000E+00  0.2040816E-01  0.3855958E-05  0.0000000E+00 -0.8557610E-01
  0.7142857E+00  0.0000000E+00  0.2040816E-01  0.3479135E-05  0.0000000E+00 -0.8556776E-01
  0.7551020E+00  0.0000000E+00  0.2040816E-01  0.3036899E-05  0.0000000E+00 -0.8556036E-01
  0.7959183E+00  0.0000000E+00  0.2040816E-01  0.2536412E-05  0.0000000E+00 -0.8555402E-01
  0.8367347E+00  0.0000000E+00  0.2040816E-01  0.1986026E-05  0.0000000E+00 -0.8554888E-01
  0.8775510E+00  0.0000000E+00  0.2040816E-01  0.1395139E-05  0.0000000E+00 -0.8554504E-01
  0.9183673E+00  0.0000000E+00  0.2040816E-01  0.7740223E-06  0.0000000E+00 -0.8554258E-01
  0.9591837E+00  0.0000000E+00  0.2040816E-01  0.1335524E-06  0.0000000E+00 -0.8554155E-01
  0.1000000E+01  0.0000000E+00  0.2040816E-01 -0.5148953E-06  0.0000000E+00 -0.8554198E-01
  0.1040816E+01  0.0000000E+00  0.2040816E-01 -0.1159414E-05  0.0000000E+00 -0.8554388E-01
  0.1081633E+01  0.0000000E+00  0.2040816E-01 -0.1789660E-05  0.0000000E+00 -0.8554723E-01
  0.1122449E+01  0.0000000E+00  0.2040816E-01 -0.2394019E-05  0.0000000E+00 -0.8555199E-01
  0.1163265E+01  0.0000000E+00  0.2040816E-01 -0.2960561E-05  0.0000000E+00 -0.8555807E-01
  0.1204082E+01  0.0000000E+00  0.2040816E-01 -0.3481442E-05  0.0000000E+00 -0.8556539E-01
  0.1244898E+01  0.0000000E+00  0.2040816E-01 -0.3947373E-05  0.0000000E+00 -0.8557383E-01
  0.1285714E+01  0.0000000E+00  0.2040816E-01 -0.4349322E-05  0.0000000E+00 -0.8558326E-01
  0.1326531E+01  0.0000000E+00  0.2040816E-01 -0.4681642E-05  0.0000000E+00 -0.8559352E-01
  0.1367347E+01  0.0000000E+00  0.2040816E-01 -0.4939557E-05  0.0000000E+00 -0.8560446E-01
  0.1408163E+01  0.0000000E+00  0.2040816E-01 -0.5119035E-05  0.0000000E+00 -0.8561589E-01
  0.1448980E+01  0.0000000E+00  0.2040816E-01 -0.5217553E-05  0.0000000E+00 -0.8562764E-01
  0.1489796E+01  0.0000000E+00  0.2040816E-01 -0.5234236E-05  0.0000000E+00 -0.8563951E-01
  0.1530612E+01  0.0000000E+00  0.2040816E-01 -0.5169630E-05  0.0000000E+00 -0.8565134E-01
  0.1571429E+01  0.0000000E+00  0.2040816E-01 -0.5025513E-05  0.0000000E+00 -0.8566293E-01
  0.1612245E+01  0.0000000E+00  0.2040816E-01 -0.4804804E-05  0.0000000E+00 -0.8567410E-01
  0.1653061E+01  0.0000000E+00  0.2040816E-01 -0.4511527E-05  0.0000000E+00 -0.8568469E-01
  0.1693878E+01  0.0000000E+00  0.2040816E-01 -0.4150752E-05  0.0000000E+00 -0.8569453E-01
  0.1734694E+01  0.0000000E+00  0.2040816E-01 -0.3728447E-05  0.0000000E+00 -0.8570349E-01
  0.1775510E+01  0.0000000E+00  0.2040816E-01 -0.3251317E-05  0.0000000E+00 -0.8571142E-01
  0.1816326E+01  0.0000000E+00  0.2040816E-01 -0.2726699E-05  0.0000000E+00 -0.8571821E-01
  0.1857143E+01  0.0000000E+00  0.2040816E-01 -0.2162501E-05  0.0000000E+00 -0.8572377E-01
  0.1897959E+01  0.0000000E+00  0.2040816E-01 -0.1567104E-05  0.0000000E+00 -0.8572801E-01
  0.1938776E+01  0.0000000E+00  0.2040816E-01 -0.9492234E-06  0.0000000E+00 -0.8573087E-01
  0.1989796E+01  0.0000000E+00  0.2040816E-01 -0.3177978E-06  0.0000000E+00 -0.8573231E-01
  0.2040816E-01  0.0000000E+00  0.6122449E-01  0.8103994E-06  0.0000000E+00 -0.8570101E-01
  0.6122449E-01  0.0000000E+00  0.6122449E-01  0.2418246E-05  0.0000000E+00 -0.8569966E-01
  0.1020408E+00  0.0000000E+00  0.6122449E-01  0.3989401E-05  0.0000000E+00 -0.8569696E-01
  0.1428571E+00  0.0000000E+00  0.6122449E-01  0.5497311E-05  0.0000000E+00 -0.8569297E-01
  0.1836735E+00  0.0000000E+00  0.6122449E-01  0.6914774E-05  0.0000000E+00 -0.8568775E-01
  0.2244898E+00  0.0000000E+00  0.6122449E-01  0.8221598E-05  0.0000000E+00 -0.8568139E-01
  0.2653061E+00  0.0000000E+00  0.6122449E-01  0.9395409E-05  0.0000000E+00 -0.8567398E-01
  0.3061225E+00  0.0000000E+00  0.6122449E-01  0.1041380E-04  0.0000000E+00 -0.8566565E-01
  0.3469388E+00  0.0000000E+00  0.6122449E-01  0.1125995E-04  0.0000000E+00 -0.8565653E-01
  0.3877551E+00  0.0000000E+00  0.6122449E-01  0.1191870E-04  0.0000000E+00 -0.8564678E-01
  0.4285714E+00  0.0000000E+00  0.6122449E-01  0.1237649E-04  0.0000000E+00 -0.8563656E-01
  0.4693878E+00  0.0000000E+00  0.6122449E-01  0.1262291E-04  0.0000000E+00 -0.8562605E-01
  0.5102041E+00  0.0000000E+00  0.6122449E-01  0.1265128E-04  0.0000000E+00 -0.8561541E-01
  0.5510204E+00  0.0000000E+00  0.6122449E-01  0.1245855E-04  0.0000000E+00 -0.8560485E-01
  0.5918368E+00  0.0000000E+00  0.6122449E-01  0.1204531E-04  0.0000000E+00 -0.8559454E-01
  0.6326531E+00  0.0000000E+00  0.6122449E-01  0.1141592E-04  0.0000000E+00 -0.8558466E-01
  0.6734694E+00  0.0000000E+00  0.6122449E-01  0.1057869E-04  0.0000000E+00 -0.8557540E-01
  0.7142857E+00  0.0000000E+00  0.6122449E-01  0.9545876E-05  0.0000000E+00 -0.8556693E-01
  0.7551020E+00  0.0000000E+00  0.6122449E-01  0.8333513E-05  0.0000000E+00 -0.8555940E-01
  0.7959183E+00  0.0000000E+00  0.6122449E-01  0.6961237E-05  0.0000000E+00 -0.8555296E-01
  0.8367347E+00  0.0000000E+00  0.6122449E-01  0.5451959E-05  0.0000000E+00 -0.8554773E-01
  0.8775510E+00  0.0000000E+00  0.6122449E-01  0.3831466E-05  0.0000000E+00 -0.8554382E-01
  0.9183673E+00  0.0000000E+00  0.6122449E-01  0.2127929E-05  0.0000000E+00 -0.8554131E-01
  0.9591837E+00  0.0000000E+00  0.6122449E-01  0.3715169E-06  0.0000000E+00 -0.8554025E-01
  0.1000000E+01  0.0000000E+00  0.6122449E-01 -0.1407261E-05  0.0000000E+00 -0.8554068E-01
  0.1040816E+01  0.0000000E+00  0.6122449E-01 -0.3175466E-05  0.0000000E+00 -0.8554260E-01
  0.1081633E+01  0.0000000E+00  0.6122449E-01 -0.4903429E-05  0.0000000E+00 -0.8554599E-01
  0.1122449E+01  0.0000000E+00  0.6122449E-01 -0.6560908E-05  0.0000000E+00 -0.8555081E-01
  0.1163265E+01  0.0000000E+00  0.6122449E-01 -0.8115338E-05  0.0000000E+00 -0.8555697E-01
  0.1204082E+01  0.0000000E+00  0.6122449E-01 -0.9543406E-05  0.0000000E+00 -0.8556440E-01
  0.1244898E+01  0.0000000E+00  0.6122449E-01 -0.1082048E-04  0.0000000E+00 -0.8557296E-01
  0.1285714E+01  0.0000000E+00  0.6122449E-01 -0.1192256E-04  0.0000000E+00 -0.8558252E-01
  0.1326531E+01  0.0000000E+00  0.6122449E-01 -0.1283357E-04  0.0000000E+00 -0.8559292E-01
  0.1367347E+01  0.0000000E+00  0.6122449E-01 -0.1354020E-04  0.0000000E+00 -0.8560401E-01
  0.1408163E+01  0.0000000E+00  0.6122449E-01 -0.1403161E-04  0.0000000E+00 -0.8561560E-01
  0.1448980E+01  0.0000000E+00  0.6122449E-01 -0.1430106E-04  0.0000000E+00 -0.8562751E-01
  0.1489796E+01  0.0000000E+00  0.6122449E-01 -0.1434618E-04  0.0000000E+00 -0.8563955E-01
  0.1530612E+01  0.0000000E+00  0.6122449E-01 -0.1416845E-04  0.0000000E+00 -0.8565154E-01
  0.1571429E+01  0.0000000E+00  0.6122449E-01 -0.1377279E-04  0.0000000E+00 -0.8566328E-01
  0.1612245E+01  0.0000000E+00  0.6122449E-01 -0.1316729E-04  0.0000000E+00 -0.8567460E-01
  0.1653061E+01  0.0000000E+00  0.6122449E-01 -0.1236302E-04  0.0000000E+00 -0.8568533E-01
  0.1693878E+01  0.0000000E+00  0.6122449E-01 -0.1137387E-04  0.0000000E+00 -0.8569531E-01
  0.1734694E+01  0.0000000E+00  0.6122449E-01 -0.1021623E-04  0.0000000E+00 -0.8570438E-01
  0.1775510E+01  0.0000000E+00  0.6122449E-01 -0.8908533E-05  0.0000000E+00 -0.8571241E-01
  0.1816326E+01  0.0000000E+00  0.6122449E-01 -0.7470876E-05  0.0000000E+00 -0.8571929E-01
  0.1857143E+01  0.0000000E+00  0.6122449E-01 -0.5924881E-05  0.0000000E+00 -0.8572492E-01
  0.1897959E+01  0.0000000E+00  0.6122449E-01 -0.4293464E-05  0.0000000E+00 -0.8572922E-01
  0.1938776E+01  0.0000000E+00  0.6122449E-01 -0.2600507E-05  0.0000000E+00 -0.8573211E-01
  0.1989796E+01  0.0000000E+00  0.6122449E-01 -0.8707444E-06  0.0000000E+00 -0.8573357E-01
  0.2040816E-01  0.0000000E+00  0.1020408E+00  0.1217270E-05  0.0000000E+00 -0.8570304E-01
  0.6122449E-01  0.0000000E+00  0.1020408E+00  0.3632940E-05  0.0000000E+00 -0.8570165E-01
  0.1020408E+00  0.0000000E+00  0.1020408E+00  0.5992216E-05  0.0000000E+00 -0.8569889E-01
  0.1428571E+00  0.0000000E+00  0.1020408E+00  0.8257144E-05  0.0000000E+00 -0.8569481E-01
  0.1836735E+00  0.0000000E+00  0.1020408E+00  0.1038763E-04  0.0000000E+00 -0.8568946E-01
  0.2244898E+00  0.0000000E+00  0.1020408E+00  0.1235132E-04  0.0000000E+00 -0.8568294E-01
  0.2653061E+00  0.0000000E+00  0.1020408E+00  0.1411539E-04  0.0000000E+00 -0.8567535E-01
  0.3061225E+00  0.0000000E+00  0.1020408E+00  0.1564714E-04  0.0000000E+00 -0.8566681E-01
  0.3469388E+00  0.0000000E+00  0.1020408E+00  0.1692055E-04  0.0000000E+00 -0.8565747E-01
  0.3877551E+00  0.0000000E+00  0.1020408E+00  0.1791249E-04  0.0000000E+00 -0.8564747E-01
  0.4285714E+00  0.0000000E+00  0.1020408E+00  0.1860270E-04  0.0000000E+00 -0.8563699E-01
  0.4693878E+00  0.0000000E+00  0.1020408E+00  0.1897559E-04  0.0000000E+00 -0.8562620E-01
  0.5102041E+00  0.0000000E+00  0.1020408E+00  0.1902096E-04  0.0000000E+00 -0.8561528E-01
  0.5510204E+00  0.0000000E+00  0.1020408E+00  0.1873402E-04  0.0000000E+00 -0.8560444E-01
  0.5918368E+00  0.0000000E+00  0.1020408E+00  0.1811548E-04  0.0000000E+00 -0.8559385E-01
  0.6326531E+00  0.0000000E+00  0.1020408E+00  0.1717181E-04  0.0000000E+00 -0.8558370E-01
  0.6734694E+00  0.0000000E+00  0.1020408E+00  0.1591538E-04  0.0000000E+00 -0.8557419E-01
  0.7142857E+00  0.0000000E+00  0.1020408E+00  0.1436450E-04  0.0000000E+00 -0.8556548E-01
  0.7551020E+00  0.0000000E+00  0.1020408E+00  0.1254325E-04  0.0000000E+00 -0.8555773E-01
  0.7959183E+00  0.0000000E+00  0.1020408E+00  0.1048109E-04  0.0000000E+00 -0.8555110E-01
  0.8367347E+00  0.0000000E+00  0.1020408E+00  0.8212508E-05  0.0000000E+00 -0.8554572E-01
  0.8775510E+00  0.0000000E+00  0.1020408E+00  0.5776326E-05  0.0000000E+00 -0.8554168E-01
  0.9183673E+00  0.0000000E+00  0.1020408E+00  0.3214768E-05  0.0000000E+00 -0.8553908E-01
  0.9591837E+00  0.0000000E+00  0.1020408E+00  0.5738156E-06  0.0000000E+00 -0.8553797E-01
  0.1000000E+01  0.0000000E+00  0.1020408E+00 -0.2100960E-05  0.0000000E+00 -0.8553839E-01
  0.1040816E+01  0.0000000E+00  0.1020408E+00 -0.4760646E-05  0.0000000E+00 -0.8554035E-01
  0.1081633E+01  0.0000000E+00  0.1020408E+00 -0.7358437E-05  0.0000000E+00 -0.8554381E-01
  0.1122449E+01  0.0000000E+00  0.1020408E+00 -0.9850237E-05  0.0000000E+00 -0.8554874E-01
  0.1163265E+01  0.0000000E+00  0.1020408E+00 -0.1218800E-04  0.0000000E+00 -0.8555505E-01
  0.1204082E+01  0.0000000E+00  0.1020408E+00 -0.1433416E-04  0.0000000E+00 -0.8556265E-01
  0.1244898E+01  0.0000000E+00  0.1020408E+00 -0.1625256E-04  0.0000000E+00 -0.8557142E-01
  0.1285714E+01  0.0000000E+00  0.1020408E+00 -0.1790833E-04  0.0000000E+00 -0.8558121E-01
  0.1326531E+01  0.0000000E+00  0.1020408E+00 -0.1927649E-04  0.0000000E+00 -0.8559187E-01
  0.1367347E+01  0.0000000E+00  0.1020408E+00 -0.2033674E-04  0.0000000E+00 -0.8560323E-01
  0.1408163E+01  0.0000000E+00  0.1020408E+00 -0.2107319E-04  0.0000000E+00 -0.8561509E-01
  0.1448980E+01  0.0000000E+00  0.1020408E+00 -0.2147607E-04  0.0000000E+00 -0.8562729E-01
  0.1489796E+01  0.0000000E+00  0.1020408E+00 -0.2154193E-04  0.0000000E+00 -0.8563961E-01
  0.1530612E+01  0.0000000E+00  0.1020408E+00 -0.2127304E-04  0.0000000E+00 -0.8565188E-01
  0.1571429E+01  0.0000000E+00  0.1020408E+00 -0.2067692E-04  0.0000000E+00 -0.8566389E-01
  0.1612245E+01  0.0000000E+00  0.1020408E+00 -0.1976593E-04  0.0000000E+00 -0.8567548E-01
  0.1653061E+01  0.0000000E+00  0.1020408E+00 -0.1855687E-04  0.0000000E+00 -0.8568645E-01
  0.1693878E+01  0.0000000E+00  0.1020408E+00 -0.1707065E-04  0.0000000E+00 -0.8569665E-01
  0.1734694E+01  0.0000000E+00  0.1020408E+00 -0.1533189E-04  0.0000000E+00 -0.8570592E-01
  0.1775510E+01  0.0000000E+00  0.1020408E+00 -0.1336833E-04  0.0000000E+00 -0.8571413E-01
  0.1816326E+01  0.0000000E+00  0.1020408E+00 -0.1121025E-04  0.0000000E+00 -0.8572117E-01
  0.1857143E+01  0.0000000E+00  0.1020408E+00 -0.8890015E-05  0.0000000E+00 -0.8572692E-01
  0.1897959E+01  0.0000000E+00  0.1020408E+00 -0.6441891E-05  0.0000000E+00 -0.8573130E-01
  0.1938776E+01  0.0000000E+00  0.1020408E+00 -0.3901567E-05  0.0000000E+00 -0.8573426E-01
  0.1989796E+01  0.0000000E+00  0.1020408E+00 -0.1306445E-05  0.0000000E+00 -0.8573575E-01
  0.2040816E-01  0.0000000E+00  0.1428571E+00  0.1573630E-05  0.0000000E+00 -0.8570580E-01
  0.6122449E-01  0.0000000E+00  0.1428571E+00  0.4697460E-05  0.0000000E+00 -0.8570437E-01
  0.1020408E+00  0.0000000E+00  0.1428571E+00  0.7748059E-05  0.0000000E+00 -0.8570152E-01
  0.1428571E+00  0.0000000E+00  0.1428571E+00  0.1067677E-04  0.0000000E+00 -0.8569730E-01
  0.1836735E+00  0.0000000E+00  0.1428571E+00  0.1343303E-04  0.0000000E+00 -0.8569178E-01
  0.2244898E+00  0.0000000E+00  0.1428571E+00  0.1597396E-04  0.0000000E+00 -0.8568505E-01
  0.2653061E+00  0.0000000E+00  0.1428571E+00  0.1825734E-04  0.0000000E+00 -0.8567721E-01
  0.3061225E+00  0.0000000E+00  0.1428571E+00  0.2024155E-04  0.0000000E+00 -0.8566839E-01
  0.3469388E+00  0.0000000E+00  0.1428571E+00  0.2189242E-04  0.0000000E+00 -0.8565873E-01
  0.3877551E+00  0.0000000E+00  0.1428571E+00  0.2317971E-04  0.0000000E+00 -0.8564840E-01
  0.4285714E+00  0.0000000E+00  0.1428571E+00  0.2407719E-04  0.0000000E+00 -0.8563756E-01
  0.4693878E+00  0.0000000E+00  0.1428571E+00  0.2456458E-04  0.0000000E+00 -0.8562640E-01
  0.5102041E+00  0.0000000E+00  0.1428571E+00  0.2462841E-04  0.0000000E+00 -0.8561510E-01
  0.5510204E+00  0.0000000E+00  0.1428571E+00  0.2426218E-04  0.0000000E+00 -0.8560387E-01
  0.5918368E+00  0.0000000E+00  0.1428571E+00  0.2346652E-04  0.0000000E+00 -0.8559290E-01
  0.6326531E+00  0.0000000E+00  0.1428571E+00  0.2224954E-04  0.0000000E+00 -0.8558239E-01
  0.6734694E+00  0.0000000E+00  0.1428571E+00  0.2062708E-04  0.0000000E+00 -0.8557252E-01
  0.7142857E+00  0.0000000E+00  0.1428571E+00  0.1862266E-04  0.0000000E+00 -0.8556349E-01
  0.7551020E+00  0.0000000E+00  0.1428571E+00  0.1626730E-04  0.0000000E+00 -0.8555545E-01
  0.7959183E+00  0.0000000E+00  0.1428571E+00  0.1359911E-04  0.0000000E+00 -0.8554856E-01
  0.8367347E+00  0.0000000E+00  0.1428571E+00  0.1066275E-04  0.0000000E+00 -0.8554295E-01
  0.8775510E+00  0.0000000E+00  0.1428571E+00  0.7508635E-05  0.0000000E+00 -0.8553875E-01
  0.9183673E+00  0.0000000E+00  0.1428571E+00  0.4191483E-05  0.0000000E+00 -0.8553603E-01
  0.9591837E+00  0.0000000E+00  0.1428571E+00  0.7708783E-06  0.0000000E+00 -0.8553486E-01
  0.1000000E+01  0.0000000E+00  0.1428571E+00 -0.2693158E-05  0.0000000E+00 -0.8553527E-01
  0.1040816E+01  0.0000000E+00  0.1428571E+00 -0.6138437E-05  0.0000000E+00 -0.8553726E-01
  0.1081633E+01  0.0000000E+00  0.1428571E+00 -0.9503008E-05  0.0000000E+00 -0.8554083E-01
  0.1122449E+01  0.0000000E+00  0.1428571E+00 -0.1272928E-04  0.0000000E+00 -0.8554590E-01
  0.1163265E+01  0.0000000E+00  0.1428571E+00 -0.1575630E-04  0.0000000E+00 -0.8555242E-01
  0.1204082E+01  0.0000000E+00  0.1428571E+00 -0.1853398E-04  0.0000000E+00 -0.8556026E-01
  0.1244898E+01  0.0000000E+00  0.1428571E+00 -0.2101562E-04  0.0000000E+00 -0.8556931E-01
  0.1285714E+01  0.0000000E+00  0.1428571E+00 -0.2315694E-04  0.0000000E+00 -0.8557942E-01
  0.1326531E+01  0.0000000E+00  0.1428571E+00 -0.2492519E-04  0.0000000E+00 -0.8559043E-01
  0.1367347E+01  0.0000000E+00  0.1428571E+00 -0.2629402E-04  0.0000000E+00 -0.8560215E-01
  0.1408163E+01  0.0000000E+00  0.1428571E+00 -0.2724323E-04  0.0000000E+00 -0.8561440E-01
  0.1448980E+01  0.0000000E+00  0.1428571E+00 -0.2776062E-04  0.0000000E+00 -0.8562698E-01
  0.1489796E+01  0.0000000E+00  0.1428571E+00 -0.2784205E-04  0.0000000E+00 -0.8563969E-01
  0.1530612E+01  0.0000000E+00  0.1428571E+00 -0.2749066E-04  0.0000000E+00 -0.8565234E-01
  0.1571429E+01  0.0000000E+00  0.1428571E+00 -0.2671639E-04  0.0000000E+00 -0.8566472E-01
  0.1612245E+01  0.0000000E+00  0.1428571E+00 -0.2553554E-04  0.0000000E+00 -0.8567666E-01
  0.1653061E+01  0.0000000E+00  0.1428571E+00 -0.2397020E-04  0.0000000E+00 -0.8568796E-01
  0.1693878E+01  0.0000000E+00  0.1428571E+00 -0.2204757E-04  0.0000000E+00 -0.8569847E-01
  0.1734694E+01  0.0000000E+00  0.1428571E+00 -0.1979947E-04  0.0000000E+00 -0.8570802E-01
  0.1775510E+01  0.0000000E+00  0.1428571E+00 -0.1726181E-04  0.0000000E+00 -0.8571647E-01
  0.1816326E+01  0.0000000E+00  0.1428571E+00 -0.1447378E-04  0.0000000E+00 -0.8572371E-01
  0.1857143E+01  0.0000000E+00  0.1428571E+00 -0.1147723E-04  0.0000000E+00 -0.8572963E-01
  0.1897959E+01  0.0000000E+00  0.1428571E+00 -0.8316223E-05  0.0000000E+00 -0.8573414E-01
  0.1938776E+01  0.0000000E+00  0.1428571E+00 -0.5036600E-05  0.0000000E+00 -0.8573719E-01
  0.1989796E+01  0.0000000E+00  0.1428571E+00 -0.1686467E-05  0.0000000E+00 -0.8573872E-01
  0.2040816E-01  0.0000000E+00  0.1836735E+00  0.1899561E-05  0.0000000E+00 -0.8570922E-01
  0.6122449E-01  0.0000000E+00  0.1836735E+00  0.5670508E-05  0.0000000E+00 -0.8570773E-01
  0.1020408E+00  0.0000000E+00  0.1836735E+00  0.9353384E-05  0.0000000E+00 -0.8570477E-01
  0.1428571E+00  0.0000000E+00  0.1836735E+00  0.1288954E-04  0.0000000E+00 -0.8570039E-01
  0.1836735E+00  0.0000000E+00  0.1836735E+00  0.1621897E-04  0.0000000E+00 -0.8569466E-01
  0.2244898E+00  0.0000000E+00  0.1836735E+00  0.1928945E-04  0.0000000E+00 -0.8568766E-01
  0.2653061E+00  0.0000000E+00  0.1836735E+00  0.2205009E-04  0.0000000E+00 -0.8567951E-01
  0.3061225E+00  0.0000000E+00  0.1836735E+00  0.2445106E-04  0.0000000E+00 -0.8567034E-01
  0.3469388E+00  0.0000000E+00  0.1836735E+00  0.2645073E-04  0.0000000E+00 -0.8566030E-01
  0.3877551E+00  0.0000000E+00  0.1836735E+00  0.2801223E-04  0.0000000E+00 -0.8564955E-01
  0.4285714E+00  0.0000000E+00  0.1836735E+00  0.2910371E-04  0.0000000E+00 -0.8563827E-01
  0.4693878E+00  0.0000000E+00  0.1836735E+00  0.2970039E-04  0.0000000E+00 -0.8562664E-01
  0.5102041E+00  0.0000000E+00  0.1836735E+00  0.2978561E-04  0.0000000E+00 -0.8561487E-01
  0.5510204E+00  0.0000000E+00  0.1836735E+00  0.2935102E-04  0.0000000E+00 -0.8560317E-01
  0.5918368E+00  0.0000000E+00  0.1836735E+00  0.2839696E-04  0.0000000E+00 -0.8559173E-01
  0.6326531E+00  0.0000000E+00  0.1836735E+00  0.2693286E-04  0.0000000E+00 -0.8558075E-01
  0.6734694E+00  0.0000000E+00  0.1836735E+00  0.2497749E-04  0.0000000E+00 -0.8557045E-01
  0.7142857E+00  0.0000000E+00  0.1836735E+00  0.2255903E-04  0.0000000E+00 -0.8556101E-01
  0.7551020E+00  0.0000000E+00  0.1836735E+00  0.1971478E-04  0.0000000E+00 -0.8555260E-01
  0.7959183E+00  0.0000000E+00  0.1836735E+00  0.1649076E-04  0.0000000E+00 -0.8554538E-01
  0.8367347E+00  0.0000000E+00  0.1836735E+00  0.1294098E-04  0.0000000E+00 -0.8553951E-01
  0.8775510E+00  0.0000000E+00  0.1836735E+00  0.9126471E-05  0.0000000E+00 -0.8553509E-01
  0.9183673E+00  0.0000000E+00  0.1836735E+00  0.5114017E-05  0.0000000E+00 -0.8553223E-01
  0.9591837E+00  0.0000000E+00  0.1836735E+00  0.9752449E-06  0.0000000E+00 -0.8553097E-01
  0.1000000E+01  0.0000000E+00  0.1836735E+00 -0.3216072E-05  0.0000000E+00 -0.8553137E-01
  0.1040816E+01  0.0000000E+00  0.1836735E+00 -0.7384849E-05  0.0000000E+00 -0.8553342E-01
  0.1081633E+01  0.0000000E+00  0.1836735E+00 -0.1145565E-04  0.0000000E+00 -0.8553711E-01
  0.1122449E+01  0.0000000E+00  0.1836735E+00 -0.1535791E-04  0.0000000E+00 -0.8554237E-01
  0.1163265E+01  0.0000000E+00  0.1836735E+00 -0.1901861E-04  0.0000000E+00 -0.8554913E-01
  0.1204082E+01  0.0000000E+00  0.1836735E+00 -0.2237632E-04  0.0000000E+00 -0.8555728E-01
  0.1244898E+01  0.0000000E+00  0.1836735E+00 -0.2537440E-04  0.0000000E+00 -0.8556669E-01
  0.1285714E+01  0.0000000E+00  0.1836735E+00 -0.2795993E-04  0.0000000E+00 -0.8557719E-01
  0.1326531E+01  0.0000000E+00  0.1836735E+00 -0.3009315E-04  0.0000000E+00 -0.8558863E-01
  0.1367347E+01  0.0000000E+00  0.1836735E+00 -0.3174233E-04  0.0000000E+00 -0.8560080E-01
  0.1408163E+01  0.0000000E+00  0.1836735E+00 -0.3288353E-04  0.0000000E+00 -0.8561352E-01
  0.1448980E+01  0.0000000E+00  0.1836735E+00 -0.3350247E-04  0.0000000E+00 -0.8562659E-01
  0.1489796E+01  0.0000000E+00  0.1836735E+00 -0.3359467E-04  0.0000000E+00 -0.8563978E-01
  0.1530612E+01  0.0000000E+00  0.1836735E+00 -0.3316444E-04  0.0000000E+00 -0.8565290E-01
  0.1571429E+01  0.0000000E+00  0.1836735E+00 -0.3222416E-04  0.0000000E+00 -0.8566575E-01
  0.1612245E+01  0.0000000E+00  0.1836735E+00 -0.3079389E-04  0.0000000E+00 -0.8567812E-01
  0.1653061E+01  0.0000000E+00  0.1836735E+00 -0.2890076E-04  0.0000000E+00 -0.8568984E-01
  0.1693878E+01  0.0000000E+00  0.1836735E+00 -0.2657802E-04  0.0000000E+00 -0.8570072E-01
  0.1734694E+01  0.0000000E+00  0.1836735E+00 -0.2386419E-04  0.0000000E+00 -0.8571061E-01
  0.1775510E+01  0.0000000E+00  0.1836735E+00 -0.2080254E-04  0.0000000E+00 -0.8571937E-01
  0.1816326E+01  0.0000000E+00  0.1836735E+00 -0.1744039E-04  0.0000000E+00 -0.8572686E-01
  0.1857143E+01  0.0000000E+00  0.1836735E+00 -0.1382823E-04  0.0000000E+00 -0.8573298E-01
  0.1897959E+01  0.0000000E+00  0.1836735E+00 -0.1001896E-04  0.0000000E+00 -0.8573765E-01
  0.1938776E+01  0.0000000E+00  0.1836735E+00 -0.6067692E-05  0.0000000E+00 -0.8574080E-01
  0.1989796E+01  0.0000000E+00  0.1836735E+00 -0.2031744E-05  0.0000000E+00 -0.8574239E-01
  0.2040816E-01  0.0000000E+00  0.2244898E+00  0.2206511E-05  0.0000000E+00 -0.8571324E-01
  0.6122449E-01  0.0000000E+00  0.2244898E+00  0.6586794E-05  0.0000000E+00 -0.8571169E-01
  0.1020408E+00  0.0000000E+00  0.2244898E+00  0.1086532E-04  0.0000000E+00 -0.8570860E-01
  0.1428571E+00  0.0000000E+00  0.2244898E+00  0.1497430E-04  0.0000000E+00 -0.8570403E-01
  0.1836735E+00  0.0000000E+00  0.2244898E+00  0.1884489E-04  0.0000000E+00 -0.8569805E-01
  0.2244898E+00  0.0000000E+00  0.2244898E+00  0.2241625E-04  0.0000000E+00 -0.8569074E-01
  0.2653061E+00  0.0000000E+00  0.2244898E+00  0.2562930E-04  0.0000000E+00 -0.8568223E-01
  0.3061225E+00  0.0000000E+00  0.2244898E+00  0.2842650E-04  0.0000000E+00 -0.8567265E-01
  0.3469388E+00  0.0000000E+00  0.2244898E+00  0.3075908E-04  0.0000000E+00 -0.8566215E-01
  0.3877551E+00  0.0000000E+00  0.2244898E+00  0.3258382E-04  0.0000000E+00 -0.8565091E-01
  0.4285714E+00  0.0000000E+00  0.2244898E+00  0.3386338E-04  0.0000000E+00 -0.8563910E-01
  0.4693878E+00  0.0000000E+00  0.2244898E+00  0.3456850E-04  0.0000000E+00 -0.8562693E-01
  0.5102041E+00  0.0000000E+00  0.2244898E+00  0.3467919E-04  0.0000000E+00 -0.8561460E-01
  0.5510204E+00  0.0000000E+00  0.2244898E+00  0.3418512E-04  0.0000000E+00 -0.8560233E-01
  0.5918368E+00  0.0000000E+00  0.2244898E+00  0.3308607E-04  0.0000000E+00 -0.8559033E-01
  0.6326531E+00  0.0000000E+00  0.2244898E+00  0.3139241E-04  0.0000000E+00 -0.8557882E-01
  0.6734694E+00  0.0000000E+00  0.2244898E+00  0.2912550E-04  0.0000000E+00 -0.8556799E-01
  0.7142857E+00  0.0000000E+00  0.2244898E+00  0.2631770E-04  0.0000000E+00 -0.8555807E-01
  0.7551020E+00  0.0000000E+00  0.2244898E+00  0.2301215E-04  0.0000000E+00 -0.8554922E-01
  0.7959183E+00  0.0000000E+00  0.2244898E+00  0.1926234E-04  0.0000000E+00 -0.8554162E-01
  0.8367347E+00  0.0000000E+00  0.2244898E+00  0.1513121E-04  0.0000000E+00 -0.8553543E-01
  0.8775510E+00  0.0000000E+00  0.2244898E+00  0.1068974E-04  0.0000000E+00 -0.8553076E-01
  0.9183673E+00  0.0000000E+00  0.2244898E+00  0.6016543E-05  0.0000000E+00 -0.8552771E-01
  0.9591837E+00  0.0000000E+00  0.2244898E+00  0.1194945E-05  0.0000000E+00 -0.8552636E-01
  0.1000000E+01  0.0000000E+00  0.2244898E+00 -0.3688331E-05  0.0000000E+00 -0.8552674E-01
  0.1040816E+01  0.0000000E+00  0.2244898E+00 -0.8545269E-05  0.0000000E+00 -0.8552886E-01
  0.1081633E+01  0.0000000E+00  0.2244898E+00 -0.1328754E-04  0.0000000E+00 -0.8553269E-01
  0.1122449E+01  0.0000000E+00  0.2244898E+00 -0.1783208E-04  0.0000000E+00 -0.8553818E-01
  0.1163265E+01  0.0000000E+00  0.2244898E+00 -0.2209411E-04  0.0000000E+00 -0.8554524E-01
  0.1204082E+01  0.0000000E+00  0.2244898E+00 -0.2600136E-04  0.0000000E+00 -0.8555375E-01
  0.1244898E+01  0.0000000E+00  0.2244898E+00 -0.2948774E-04  0.0000000E+00 -0.8556358E-01
  0.1285714E+01  0.0000000E+00  0.2244898E+00 -0.3249208E-04  0.0000000E+00 -0.8557455E-01
  0.1326531E+01  0.0000000E+00  0.2244898E+00 -0.3496809E-04  0.0000000E+00 -0.8558649E-01
  0.1367347E+01  0.0000000E+00  0.2244898E+00 -0.3687919E-04  0.0000000E+00 -0.8559921E-01
  0.1408163E+01  0.0000000E+00  0.2244898E+00 -0.3819813E-04  0.0000000E+00 -0.8561249E-01
  0.1448980E+01  0.0000000E+00  0.2244898E+00 -0.3890891E-04  0.0000000E+00 -0.8562612E-01
  0.1489796E+01  0.0000000E+00  0.2244898E+00 -0.3900702E-04  0.0000000E+00 -0.8563989E-01
  0.1530612E+01  0.0000000E+00  0.2244898E+00 -0.3849826E-04  0.0000000E+00 -0.8565357E-01
  0.1571429E+01  0.0000000E+00  0.2244898E+00 -0.3739770E-04  0.0000000E+00 -0.8566696E-01
  0.1612245E+01  0.0000000E+00  0.2244898E+00 -0.3572917E-04  0.0000000E+00 -0.8567985E-01
  0.1653061E+01  0.0000000E+00  0.2244898E+00 -0.3352472E-04  0.0000000E+00 -0.8569205E-01
  0.1693878E+01  0.0000000E+00  0.2244898E+00 -0.3082351E-04  0.0000000E+00 -0.8570338E-01
  0.1734694E+01  0.0000000E+00  0.2244898E+00 -0.2767064E-04  0.0000000E+00 -0.8571367E-01
  0.1775510E+01  0.0000000E+00  0.2244898E+00 -0.2411635E-04  0.0000000E+00 -0.8572277E-01
  0.1816326E+01  0.0000000E+00  0.2244898E+00 -0.2021544E-04  0.0000000E+00 -0.8573056E-01
  0.1857143E+01  0.0000000E+00  0.2244898E+00 -0.1602645E-04  0.0000000E+00 -0.8573693E-01
  0.1897959E+01  0.0000000E+00  0.2244898E+00 -0.1161044E-04  0.0000000E+00 -0.8574178E-01
  0.1938776E+01  0.0000000E+00  0.2244898E+00 -0.7031216E-05  0.0000000E+00 -0.8574505E-01
  0.1989796E+01  0.0000000E+00  0.2244898E+00 -0.2354478E-05  0.0000000E+00 -0.8574670E-01
  0.2040816E-01  0.0000000E+00  0.2653061E+00  0.2502289E-05  0.0000000E+00 -0.8571785E-01
  0.6122449E-01  0.0000000E+00  0.2653061E+00  0.7469892E-05  0.0000000E+00 -0.8571622E-01
  0.1020408E+00  0.0000000E+00  0.2653061E+00  0.1232285E-04  0.0000000E+00 -0.8571299E-01
  0.1428571E+00  0.0000000E+00  0.2653061E+00  0.1698483E-04  0.0000000E+00 -0.8570820E-01
  0.1836735E+00  0.0000000E+00  0.2653061E+00  0.2137867E-04  0.0000000E+00 -0.8570193E-01
  0.2244898E+00  0.0000000E+00  0.2653061E+00  0.2543530E-04  0.0000000E+00 -0.8569427E-01
  0.2653061E+00  0.0000000E+00  0.2653061E+00  0.2908785E-04  0.0000000E+00 -0.8568535E-01
  0.3061225E+00  0.0000000E+00  0.2653061E+00  0.3227129E-04  0.0000000E+00 -0.8567530E-01
  0.3469388E+00  0.0000000E+00  0.2653061E+00  0.3492991E-04  0.0000000E+00 -0.8566428E-01
  0.3877551E+00  0.0000000E+00  0.2653061E+00  0.3701417E-04  0.0000000E+00 -0.8565247E-01
  0.4285714E+00  0.0000000E+00  0.2653061E+00  0.3848121E-04  0.0000000E+00 -0.8564006E-01
  0.4693878E+00  0.0000000E+00  0.2653061E+00  0.3929717E-04  0.0000000E+00 -0.8562727E-01
  0.5102041E+00  0.0000000E+00  0.2653061E+00  0.3943857E-04  0.0000000E+00 -0.8561430E-01
  0.5510204E+00  0.0000000E+00  0.2653061E+00  0.3889280E-04  0.0000000E+00 -0.8560138E-01
  0.5918368E+00  0.0000000E+00  0.2653061E+00  0.3765873E-04  0.0000000E+00 -0.8558873E-01
  0.6326531E+00  0.0000000E+00  0.2653061E+00  0.3574739E-04  0.0000000E+00 -0.8557659E-01
  0.6734694E+00  0.0000000E+00  0.2653061E+00  0.3318234E-04  0.0000000E+00 -0.8556517E-01
  0.7142857E+00  0.0000000E+00  0.2653061E+00  0.2999978E-04  0.0000000E+00 -0.8555469E-01
  0.7551020E+00  0.0000000E+00  0.2653061E+00  0.2624838E-04  0.0000000E+00 -0.8554534E-01
  0.7959183E+00  0.0000000E+00  0.2653061E+00  0.2198880E-04  0.0000000E+00 -0.8553730E-01
  0.8367347E+00  0.0000000E+00  0.2653061E+00  0.1729275E-04  0.0000000E+00 -0.8553073E-01
  0.8775510E+00  0.0000000E+00  0.2653061E+00  0.1224097E-04  0.0000000E+00 -0.8552577E-01
  0.9183673E+00  0.0000000E+00  0.2653061E+00  0.6923614E-05  0.0000000E+00 -0.8552252E-01
  0.9591837E+00  0.0000000E+00  0.2653061E+00  0.1435909E-05  0.0000000E+00 -0.8552106E-01
  0.1000000E+01  0.0000000E+00  0.2653061E+00 -0.4122726E-05  0.0000000E+00 -0.8552142E-01
  0.1040816E+01  0.0000000E+00  0.2653061E+00 -0.9651278E-05  0.0000000E+00 -0.8552361E-01
  0.1081633E+01  0.0000000E+00  0.2653061E+00 -0.1504851E-04  0.0000000E+00 -0.8552761E-01
  0.1122449E+01  0.0000000E+00  0.2653061E+00 -0.2021899E-04  0.0000000E+00 -0.8553336E-01
  0.1163265E+01  0.0000000E+00  0.2653061E+00 -0.2506619E-04  0.0000000E+00 -0.8554076E-01
  0.1204082E+01  0.0000000E+00  0.2653061E+00 -0.2950719E-04  0.0000000E+00 -0.8554969E-01
  0.1244898E+01  0.0000000E+00  0.2653061E+00 -0.3346661E-04  0.0000000E+00 -0.8556000E-01
  0.1285714E+01  0.0000000E+00  0.2653061E+00 -0.3687531E-04  0.0000000E+00 -0.8557151E-01
  0.1326531E+01  0.0000000E+00  0.2653061E+00 -0.3968074E-04  0.0000000E+00 -0.8558404E-01