title = "dataset feddes"
variables = "x", "y", "z", "h_w", "p_w", "s_w", "theta_w", "transp", "evap"
zone t = "Flow variables, solution time =  1.000E+01 days        " i =   50, j =   50, k =    1,  f=point
  0.0000000E+00  0.0000000E+00  0.0000000E+00  0.0000000E+00  0.0000000E+00  0.1000000E+01  0.4280000E+00  0.0000000E+00  0.0000000E+00
  0.4081633E-01  0.0000000E+00  0.0000000E+00  0.0000000E+00  0.0000000E+00  0.1000000E+01  0.4280000E+00  0.0000000E+00  0.0000000E+00
  0.8163265E-01  0.0000000E+00  0.0000000E+00  0.0000000E+00  0.0000000E+00  0.1000000E+01  0.4280000E+00  0.0000000E+00  0.0000000E+00
  0.1224490E+00  0.0000000E+00  0.0000000E+00  0.0000000E+00  0.0000000E+00  0.1000000E+01  0.4280000E+00  0.0000000E+00  0.0000000E+00
  0.1632653E+00  0.0000000E+00  0.0000000E+00  0.0000000E+00  0.0000000E+00  0.1000000E+01  0.4280000E+00  0.0000000E+00  0.0000000E+00
  0.2040816E+00  0.0000000E+00  0.0000000E+00  0.0000000E+00  0.0000000E+00  0.1000000E+01  0.4280000E+00  0.0000000E+00  0.0000000E+00
  0.2448980E+00  0.0000000E+00  0.0000000E+00  0.0000000E+00  0.0000000E+00  0.1000000E+01  0.4280000E+00  0.0000000E+00  0.0000000E+00
  0.2857143E+00  0.0000000E+00  0.0000000E+00  0.0000000E+00  0.0000000E+00  0.1000000E+01  0.4280000E+00  0.0000000E+00  0.0000000E+00
  0.3265306E+00  0.0000000E+00  0.0000000E+00  0.0000000E+00  0.0000000E+00  0.1000000E+01  0.4280000E+00  0.0000000E+00  0.0000000E+00
  0.3673469E+00  0.0000000E+00  0.0000000E+00  0.0000000E+00  0.0000000E+00  0.1000000E+01  0.4280000E+00  0.0000000E+00  0.0000000E+00
  0.4081633E+00  0.0000000E+00  0.0000000E+00  0.0000000E+00  0.0000000E+00  0.1000000E+01  0.4280000E+00  0.0000000E+00  0.0000000E+00
  0.4489796E+00  0.0000000E+00  0.0000000E+00  0.0000000E+00  0.0000000E+00  0.1000000E+01  0.4280000E+00  0.0000000E+00  0.0000000E+00
  0.4897959E+00  0.0000000E+00  0.0000000E+00  0.0000000E+00  0.0000000E+00  0.1000000E+01  0.4280000E+00  0.0000000E+00  0.0000000E+00
  0.5306122E+00  0.0000000E+00  0.0000000E+00  0.0000000E+00  0.0000000E+00  0.1000000E+01  0.4280000E+00  0.0000000E+00  0.0000000E+00
  0.5714286E+00  0.0000000E+00  0.0000000E+00  0.0000000E+00  0.0000000E+00  0.1000000E+01  0.4280000E+00  0.0000000E+00  0.0000000E+00
  0.6122449E+00  0.0000000E+00  0.0000000E+00  0.0000000E+00  0.0000000E+00  0.1000000E+01  0.4280000E+00  0.0000000E+00  0.0000000E+00
  0.6530612E+00  0.0000000E+00  0.0000000E+00  0.0000000E+00  0.0000000E+00  0.1000000E+01  0.4280000E+00  0.0000000E+00  0.0000000E+00
  0.6938776E+00  0.0000000E+00  0.0000000E+00  0.0000000E+00  0.0000000E+00  0.1000000E+01  0.4280000E+00  0.0000000E+00  0.0000000E+00
  0.7346939E+00  0.0000000E+00  0.0000000E+00  0.0000000E+00  0.0000000E+00  0.1000000E+01  0.4280000E+00  0.0000000E+00  0.0000000E+00
  0.7755102E+00  0.0000000E+00  0.0000000E+00  0.0000000E+00  0.0000000E+00  0.1000000E+01  0.4280000E+00  0.0000000E+00  0.0000000E+00
  0.8163265E+00  0.0000000E+00  0.0000000E+00  0.0000000E+00  0.0000000E+00  0.1000000E+01  0.4280000E+00  0.0000000E+00  0.0000000E+00
  0.8571429E+00  0.0000000E+00  0.0000000E+00  0.0000000E+00  0.0000000E+00  0.1000000E+01  0.4280000E+00  0.0000000E+00  0.0000000E+00
  0.8979592E+00  0.0000000E+00  0.0000000E+00  0.0000000E+00  0.0000000E+00  0.1000000E+01  0.4280000E+00  0.0000000E+00  0.0000000E+00
  0.9387755E+00  0.0000000E+00  0.0000000E+00  0.0000000E+00  0.0000000E+00  0.1000000E+01  0.4280000E+00  0.0000000E+00  0.0000000E+00
  0.9795918E+00  0.0000000E+00  0.0000000E+00  0.0000000E+00  0.0000000E+00  0.1000000E+01  0.4280000E+00  0.0000000E+00  0.0000000E+00
  0.1020408E+01  0.0000000E+00  0.0000000E+00  0.0000000E+00  0.0000000E+00  0.1000000E+01  0.4280000E+00  0.0000000E+00  0.0000000E+00
  0.1061224E+01  0.0000000E+00  0.0000000E+00  0.0000000E+00  0.0000000E+00  0.1000000E+01  0.4280000E+00  0.0000000E+00  0.0000000E+00
  0.1102041E+01  0.0000000E+00  0.0000000E+00  0.0000000E+00  0.0000000E+00  0.1000000E+01  0.4280000E+00  0.0000000E+00  0.0000000E+00
  0.1142857E+01  0.0000000E+00  0.0000000E+00  0.0000000E+00  0.0000000E+00  0.1000000E+01  0.4280000E+00  0.0000000E+00  0.0000000E+00
  0.1183673E+01  0.0000000E+00  0.0000000E+00  0.0000000E+00  0.0000000E+00  0.1000000E+01  0.4280000E+00  0.0000000E+00  0.0000000E+00
  0.1224490E+01  0.0000000E+00  0.0000000E+00  0.0000000E+00  0.0000000E+00  0.1000000E+01  0.4280000E+00  0.0000000E+00  0.0000000E+00
  0.1265306E+01  0.0000000E+00  0.0000000E+00  0.0000000E+00  0.0000000E+00  0.1000000E+01  0.4280000E+00  0.0000000E+00  0.0000000E+00
  0.1306122E+01  0.0000000E+00  0.0000000E+00  0.0000000E+00  0.0000000E+00  0.1000000E+01  0.4280000E+00  0.0000000E+00  0.0000000E+00
  0.1346939E+01  0.0000000E+00  0.0000000E+00  0.0000000E+00  0.0000000E+00  0.1000000E+01  0.4280000E+00  0.0000000E+00  0.0000000E+00
  0.1387755E+01  0.0000000E+00  0.0000000E+00  0.0000000E+00  0.0000000E+00  0.1000000E+01  0.4280000E+00  0.0000000E+00  0.0000000E+00
  0.1428571E+01  0.0000000E+00  0.0000000E+00  0.0000000E+00  0.0000000E+00  0.1000000E+01  0.4280000E+00  0.0000000E+00  0.0000000E+00
  0.1469388E+01  0.0000000E+00  0.0000000E+00  0.0000000E+00  0.0000000E+00  0.1000000E+01  0.4280000E+00  0.0000000E+00  0.0000000E+00
  0.1510204E+01  0.0000000E+00  0.0000000E+00  0.0000000E+00  0.0000000E+00  0.1000000E+01  0.4280000E+00  0.0000000E+00  0.0000000E+00
  0.1551020E+01  0.0000000E+00  0.0000000E+00  0.0000000E+00  0.0000000E+00  0.1000000E+01  0.4280000E+00  0.0000000E+00  0.0000000E+00
  0.1591837E+01  0.0000000E+00  0.0000000E+00  0.0000000E+00  0.0000000E+00  0.1000000E+01  0.4280000E+00  0.0000000E+00  0.0000000E+00
  0.1632653E+01  0.0000000E+00  0.0000000E+00  0.0000000E+00  0.0000000E+00  0.1000000E+01  0.4280000E+00  0.0000000E+00  0.0000000E+00
  0.1673469E+01  0.0000000E+00  0.0000000E+00  0.0000000E+00  0.0000000E+00  0.1000000E+01  0.4280000E+00  0.0000000E+00  0.0000000E+00
  0.1714286E+01  0.0000000E+00  0.0000000E+00  0.0000000E+00  0.0000000E+00  0.1000000E+01  0.4280000E+00  0.0000000E+00  0.0000000E+00
  0.1755102E+01  0.0000000E+00  0.0000000E+00  0.0000000E+00  0.0000000E+00  0.1000000E+01  0.4280000E+00  0.0000000E+00  0.0000000E+00
  0.1795918E+01  0.0000000E+00  0.0000000E+00  0.0000000E+00  0.0000000E+00  0.1000000E+01  0.4280000E+00  0.0000000E+00  0.0000000E+00
  0.1836735E+01  0.0000000E+00  0.0000000E+00  0.0000000E+00  0.0000000E+00  0.1000000E+01  0.4280000E+00  0.0000000E+00  0.0000000E+00
  0.1877551E+01  0.0000000E+00  0.0000000E+00  0.0000000E+00  0.0000000E+00  0.1000000E+01  0.4280000E+00  0.0000000E+00  0.0000000E+00
  0.1918367E+01  0.0000000E+00  0.0000000E+00  0.0000000E+00  0.0000000E+00  0.1000000E+01  0.4280000E+00  0.0000000E+00  0.0000000E+00
  0.1959184E+01  0.0000000E+00  0.0000000E+00  0.0000000E+00  0.0000000E+00  0.1000000E+01  0.4280000E+00  0.0000000E+00  0.0000000E+00
  0.2000000E+01  0.0000000E+00  0.0000000E+00  0.0000000E+00  0.0000000E+00  0.1000000E+01  0.4280000E+00  0.0000000E+00  0.0000000E+00
  0.0000000E+00  0.0000000E+00  0.4081633E-01  0.1331203E-01 -0.2750430E-01  0.9977059E+00  0.4270181E+00  0.0000000E+00  0.0000000E+00
  0.4081633E-01  0.0000000E+00  0.4081633E-01  0.1331202E-01 -0.2750431E-01  0.9977059E+00  0.4270181E+00  0.0000000E+00  0.0000000E+00
  0.8163265E-01  0.0000000E+00  0.4081633E-01  0.1331198E-01 -0.2750435E-01  0.9977059E+00  0.4270181E+00  0.0000000E+00  0.0000000E+00
  0.1224490E+00  0.0000000E+00  0.4081633E-01  0.1331192E-01 -0.2750441E-01  0.9977059E+00  0.4270181E+00  0.0000000E+00  0.0000000E+00
  0.1632653E+00  0.0000000E+00  0.4081633E-01  0.1331183E-01 -0.2750449E-01  0.9977059E+00  0.4270181E+00  0.0000000E+00  0.0000000E+00
  0.2040816E+00  0.0000000E+00  0.4081633E-01  0.1331173E-01 -0.2750460E-01  0.9977059E+00  0.4270181E+00  0.0000000E+00  0.0000000E+00
  0.2448980E+00  0.0000000E+00  0.4081633E-01  0.1331160E-01 -0.2750472E-01  0.9977059E+00  0.4270181E+00  0.0000000E+00  0.0000000E+00
  0.2857143E+00  0.0000000E+00  0.4081633E-01  0.1331146E-01 -0.2750487E-01  0.9977059E+00  0.4270181E+00  0.0000000E+00  0.0000000E+00
  0.3265306E+00  0.0000000E+00  0.4081633E-01  0.1331130E-01 -0.2750503E-01  0.9977059E+00  0.4270181E+00  0.0000000E+00  0.0000000E+00
  0.3673469E+00  0.0000000E+00  0.4081633E-01  0.1331113E-01 -0.2750520E-01  0.9977058E+00  0.4270181E+00  0.0000000E+00  0.0000000E+00
  0.4081633E+00  0.0000000E+00  0.4081633E-01  0.1331095E-01 -0.2750538E-01  0.9977058E+00  0.4270181E+00  0.0000000E+00  0.0000000E+00
  0.4489796E+00  0.0000000E+00  0.4081633E-01  0.1331076E-01 -0.2750557E-01  0.9977058E+00  0.4270181E+00  0.0000000E+00  0.0000000E+00
  0.4897959E+00  0.0000000E+00  0.4081633E-01  0.1331057E-01 -0.2750576E-01  0.9977058E+00  0.4270181E+00  0.0000000E+00  0.0000000E+00
  0.5306122E+00  0.0000000E+00  0.4081633E-01  0.1331038E-01 -0.2750595E-01  0.9977058E+00  0.4270181E+00  0.0000000E+00  0.0000000E+00
  0.5714286E+00  0.0000000E+00  0.4081633E-01  0.1331019E-01 -0.2750614E-01  0.9977057E+00  0.4270181E+00  0.0000000E+00  0.0000000E+00
  0.6122449E+00  0.0000000E+00  0.4081633E-01  0.1331001E-01 -0.2750632E-01  0.9977057E+00  0.4270180E+00  0.0000000E+00  0.0000000E+00
  0.6530612E+00  0.0000000E+00  0.4081633E-01  0.1330984E-01 -0.2750649E-01  0.9977057E+00  0.4270180E+00  0.0000000E+00  0.0000000E+00
  0.6938776E+00  0.0000000E+00  0.4081633E-01  0.1330968E-01 -0.2750665E-01  0.9977057E+00  0.4270180E+00  0.0000000E+00  0.0000000E+00
  0.7346939E+00  0.0000000E+00  0.4081633E-01  0.1330954E-01 -0.2750679E-01  0.9977057E+00  0.4270180E+00  0.0000000E+00  0.0000000E+00
  0.7755102E+00  0.0000000E+00  0.4081633E-01  0.1330942E-01 -0.2750691E-01  0.9977056E+00  0.4270180E+00  0.0000000E+00  0.0000000E+00
  0.8163265E+00  0.0000000E+00  0.4081633E-01  0.1330932E-01 -0.2750701E-01  0.9977056E+00  0.4270180E+00  0.0000000E+00  0.0000000E+00
  0.8571429E+00  0.0000000E+00  0.4081633E-01  0.1330924E-01 -0.2750709E-01  0.9977056E+00  0.4270180E+00  0.0000000E+00  0.0000000E+00
  0.8979592E+00  0.0000000E+00  0.4081633E-01  0.1330919E-01 -0.2750714E-01  0.9977056E+00  0.4270180E+00  0.0000000E+00  0.0000000E+00
  0.9387755E+00  0.0000000E+00  0.4081633E-01  0.1330916E-01 -0.2750717E-01  0.9977056E+00  0.4270180E+00  0.0000000E+00  0.0000000E+00
  0.9795918E+00  0.0000000E+00  0.4081633E-01  0.1330916E-01 -0.2750716E-01  0.9977056E+00  0.4270180E+00  0.0000000E+00  0.0000000E+00
  0.1020408E+01  0.0000000E+00  0.4081633E-01  0.1330919E-01 -0.2750714E-01  0.9977056E+00  0.4270180E+00  0.0000000E+00  0.0000000E+00
  0.1061224E+01  0.0000000E+00  0.4081633E-01  0.1330924E-01 -0.2750708E-01  0.9977056E+00  0.4270180E+00  0.0000000E+00  0.0000000E+00
  0.1102041E+01  0.0000000E+00  0.4081633E-01  0.1330933E-01 -0.2750700E-01  0.9977056E+00  0.4270180E+00  0.0000000E+00  0.0000000E+00
  0.1142857E+01  0.0000000E+00  0.4081633E-01  0.1330943E-01 -0.2750689E-01  0.9977056E+00  0.4270180E+00  0.0000000E+00  0.0000000E+00
  0.1183673E+01  0.0000000E+00  0.4081633E-01  0.1330956E-01 -0.2750676E-01  0.9977057E+00  0.4270180E+00  0.0000000E+00  0.0000000E+00
  0.1224490E+01  0.0000000E+00  0.4081633E-01  0.1330971E-01 -0.2750661E-01  0.9977057E+00  0.4270180E+00  0.0000000E+00  0.0000000E+00
  0.1265306E+01  0.0000000E+00  0.4081633E-01  0.1330989E-01 -0.2750644E-01  0.9977057E+00  0.4270180E+00  0.0000000E+00  0.0000000E+00
  0.1306122E+01  0.0000000E+00  0.4081633E-01  0.1331007E-01 -0.2750625E-01  0.9977057E+00  0.4270180E+00  0.0000000E+00  0.0000000E+00
  0.1346939E+01  0.0000000E+00  0.4081633E-01  0.1331028E-01 -0.2750605E-01  0.9977057E+00  0.4270181E+00  0.0000000E+00  0.0000000E+00
  0.1387755E+01  0.0000000E+00  0.4081633E-01  0.1331049E-01 -0.2750584E-01  0.9977058E+00  0.4270181E+00  0.0000000E+00  0.0000000E+00
  0.1428571E+01  0.0000000E+00  0.4081633E-01  0.1331071E-01 -0.2750562E-01  0.9977058E+00  0.4270181E+00  0.0000000E+00  0.0000000E+00
  0.1469388E+01  0.0000000E+00  0.4081633E-01  0.1331093E-01 -0.2750539E-01  0.9977058E+00  0.4270181E+00  0.0000000E+00  0.0000000E+00
  0.1510204E+01  0.0000000E+00  0.4081633E-01  0.1331116E-01 -0.2750517E-01  0.9977058E+00  0.4270181E+00  0.0000000E+00  0.0000000E+00
  0.1551020E+01  0.0000000E+00  0.4081633E-01  0.1331138E-01 -0.2750495E-01  0.9977059E+00  0.4270181E+00  0.0000000E+00  0.0000000E+00
  0.1591837E+01  0.0000000E+00  0.4081633E-01  0.1331159E-01 -0.2750473E-01  0.9977059E+00  0.4270181E+00  0.0000000E+00  0.0000000E+00
  0.1632653E+01  0.0000000E+00  0.4081633E-01  0.1331180E-01 -0.2750453E-01  0.9977059E+00  0.4270181E+00  0.0000000E+00  0.0000000E+00
  0.1673469E+01  0.0000000E+00  0.4081633E-01  0.1331199E-01 -0.2750434E-01  0.9977059E+00  0.4270181E+00  0.0000000E+00  0.0000000E+00
  0.1714286E+01  0.0000000E+00  0.4081633E-01  0.1331217E-01 -0.2750416E-01  0.9977060E+00  0.4270181E+00  0.0000000E+00  0.0000000E+00
  0.1755102E+01  0.0000000E+00  0.4081633E-01  0.1331233E-01 -0.2750400E-01  0.9977060E+00  0.4270182E+00  0.0000000E+00  0.0000000E+00
  0.1795918E+01  0.0000000E+00  0.4081633E-01  0.1331247E-01 -0.2750386E-01  0.9977060E+00  0.4270182E+00  0.0000000E+00  0.0000000E+00
  0.1836735E+01  0.0000000E+00  0.4081633E-01  0.1331258E-01 -0.2750374E-01  0.9977060E+00  0.4270182E+00  0.0000000E+00  0.0000000E+00
  0.1877551E+01  0.0000000E+00  0.4081633E-01  0.1331268E-01 -0.2750365E-01  0.9977060E+00  0.4270182E+00  0.0000000E+00  0.0000000E+00
  0.1918367E+01  0.0000000E+00  0.4081633E-01  0.1331274E-01 -0.2750358E-01  0.9977060E+00  0.4270182E+00  0.0000000E+00  0.0000000E+00
  0.1959184E+01  0.0000000E+00  0.4081633E-01  0.1331278E-01 -0.2750354E-01  0.9977060E+00  0.4270182E+00  0.0000000E+00  0.0000000E+00
  0.2000000E+01  0.0000000E+00  0.4081633E-01  0.1331280E-01 -0.2750353E-01  0.9977060E+00  0.4270182E+00  0.0000000E+00  0.0000000E+00
  0.0000000E+00  0.0000000E+00  0.8163265E-01  0.2979554E-01 -0.5183712E-01  0.9945426E+00  0.4256642E+00  0.0000000E+00  0.0000000E+00
  0.4081633E-01  0.0000000E+00  0.8163265E-01  0.2979551E-01 -0.5183714E-01  0.9945426E+00  0.4256642E+00  0.0000000E+00  0.0000000E+00
  0.8163265E-01  0.0000000E+00  0.8163265E-01  0.2979543E-01 -0.5183722E-01  0.9945426E+00  0.4256642E+00  0.0000000E+00  0.0000000E+00
  0.1224490E+00  0.0000000E+00  0.8163265E-01  0.2979530E-01 -0.5183735E-01  0.9945425E+00  0.4256642E+00  0.0000000E+00  0.0000000E+00
  0.1632653E+00  0.0000000E+00  0.8163265E-01  0.2979512E-01 -0.5183753E-01  0.9945425E+00  0.4256642E+00  0.0000000E+00  0.0000000E+00
  0.2040816E+00  0.0000000E+00  0.8163265E-01  0.2979489E-01 -0.5183776E-01  0.9945425E+00  0.4256642E+00  0.0000000E+00  0.0000000E+00
  0.2448980E+00  0.0000000E+00  0.8163265E-01  0.2979462E-01 -0.5183803E-01  0.9945425E+00  0.4256642E+00  0.0000000E+00  0.0000000E+00
  0.2857143E+00  0.0000000E+00  0.8163265E-01  0.2979431E-01 -0.5183834E-01  0.9945424E+00  0.4256641E+00  0.0000000E+00  0.0000000E+00
  0.3265306E+00  0.0000000E+00  0.8163265E-01  0.2979397E-01 -0.5183868E-01  0.9945424E+00  0.4256641E+00  0.0000000E+00  0.0000000E+00
  0.3673469E+00  0.0000000E+00  0.8163265E-01  0.2979360E-01 -0.5183905E-01  0.9945423E+00  0.4256641E+00  0.0000000E+00  0.0000000E+00
  0.4081633E+00  0.0000000E+00  0.8163265E-01  0.2979321E-01 -0.5183945E-01  0.9945422E+00  0.4256641E+00  0.0000000E+00  0.0000000E+00
  0.4489796E+00  0.0000000E+00  0.8163265E-01  0.2979280E-01 -0.5183985E-01  0.9945422E+00  0.4256641E+00  0.0000000E+00  0.0000000E+00
  0.4897959E+00  0.0000000E+00  0.8163265E-01  0.2979239E-01 -0.5184026E-01  0.9945421E+00  0.4256640E+00  0.0000000E+00  0.0000000E+00
  0.5306122E+00  0.0000000E+00  0.8163265E-01  0.2979198E-01 -0.5184068E-01  0.9945421E+00  0.4256640E+00  0.0000000E+00  0.0000000E+00
  0.5714286E+00  0.0000000E+00  0.8163265E-01  0.2979157E-01 -0.5184108E-01  0.9945420E+00  0.4256640E+00  0.0000000E+00  0.0000000E+00
  0.6122449E+00  0.0000000E+00  0.8163265E-01  0.2979118E-01 -0.5184147E-01  0.9945420E+00  0.4256640E+00  0.0000000E+00  0.0000000E+00
  0.6530612E+00  0.0000000E+00  0.8163265E-01  0.2979081E-01 -0.5184184E-01  0.9945419E+00  0.4256639E+00  0.0000000E+00  0.0000000E+00
  0.6938776E+00  0.0000000E+00  0.8163265E-01  0.2979047E-01 -0.5184218E-01  0.9945419E+00  0.4256639E+00  0.0000000E+00  0.0000000E+00
  0.7346939E+00  0.0000000E+00  0.8163265E-01  0.2979017E-01 -0.5184248E-01  0.9945418E+00  0.4256639E+00  0.0000000E+00  0.0000000E+00
  0.7755102E+00  0.0000000E+00  0.8163265E-01  0.2978991E-01 -0.5184275E-01  0.9945418E+00  0.4256639E+00  0.0000000E+00  0.0000000E+00
  0.8163265E+00  0.0000000E+00  0.8163265E-01  0.2978969E-01 -0.5184297E-01  0.9945417E+00  0.4256639E+00  0.0000000E+00  0.0000000E+00
  0.8571429E+00  0.0000000E+00  0.8163265E-01  0.2978952E-01 -0.5184313E-01  0.9945417E+00  0.4256639E+00  0.0000000E+00  0.0000000E+00
  0.8979592E+00  0.0000000E+00  0.8163265E-01  0.2978941E-01 -0.5184325E-01  0.9945417E+00  0.4256638E+00  0.0000000E+00  0.0000000E+00
  0.9387755E+00  0.0000000E+00  0.8163265E-01  0.2978935E-01 -0.5184330E-01  0.9945417E+00  0.4256638E+00  0.0000000E+00  0.0000000E+00
  0.9795918E+00  0.0000000E+00  0.8163265E-01  0.2978935E-01 -0.5184330E-01  0.9945417E+00  0.4256638E+00  0.0000000E+00  0.0000000E+00
  0.1020408E+01  0.0000000E+00  0.8163265E-01  0.2978941E-01 -0.5184324E-01  0.9945417E+00  0.4256638E+00  0.0000000E+00  0.0000000E+00
  0.1061224E+01  0.0000000E+00  0.8163265E-01  0.2978953E-01 -0.5184312E-01  0.9945417E+00  0.4256639E+00  0.0000000E+00  0.0000000E+00
  0.1102041E+01  0.0000000E+00  0.8163265E-01  0.2978970E-01 -0.5184295E-01  0.9945417E+00  0.4256639E+00  0.0000000E+00  0.0000000E+00
  0.1142857E+01  0.0000000E+00  0.8163265E-01  0.2978993E-01 -0.5184272E-01  0.9945418E+00  0.4256639E+00  0.0000000E+00  0.0000000E+00
  0.1183673E+01  0.0000000E+00  0.8163265E-01  0.2979021E-01 -0.5184244E-01  0.9945418E+00  0.4256639E+00  0.0000000E+00  0.0000000E+00
  0.1224490E+01  0.0000000E+00  0.8163265E-01  0.2979054E-01 -0.5184211E-01  0.9945419E+00  0.4256639E+00  0.0000000E+00  0.0000000E+00
  0.1265306E+01  0.0000000E+00  0.8163265E-01  0.2979091E-01 -0.5184174E-01  0.9945419E+00  0.4256639E+00  0.0000000E+00  0.0000000E+00
  0.1306122E+01  0.0000000E+00  0.8163265E-01  0.2979132E-01 -0.5184134E-01  0.9945420E+00  0.4256640E+00  0.0000000E+00  0.0000000E+00
  0.1346939E+01  0.0000000E+00  0.8163265E-01  0.2979175E-01 -0.5184090E-01  0.9945420E+00  0.4256640E+00  0.0000000E+00  0.0000000E+00
  0.1387755E+01  0.0000000E+00  0.8163265E-01  0.2979221E-01 -0.5184044E-01  0.9945421E+00  0.4256640E+00  0.0000000E+00  0.0000000E+00
  0.1428571E+01  0.0000000E+00  0.8163265E-01  0.2979268E-01 -0.5183997E-01  0.9945422E+00  0.4256640E+00  0.0000000E+00  0.0000000E+00
  0.1469388E+01  0.0000000E+00  0.8163265E-01  0.2979317E-01 -0.5183949E-01  0.9945422E+00  0.4256641E+00  0.0000000E+00  0.0000000E+00
  0.1510204E+01  0.0000000E+00  0.8163265E-01  0.2979365E-01 -0.5183900E-01  0.9945423E+00  0.4256641E+00  0.0000000E+00  0.0000000E+00
  0.1551020E+01  0.0000000E+00  0.8163265E-01  0.2979413E-01 -0.5183853E-01  0.9945424E+00  0.4256641E+00  0.0000000E+00  0.0000000E+00
  0.1591837E+01  0.0000000E+00  0.8163265E-01  0.2979459E-01 -0.5183806E-01  0.9945424E+00  0.4256642E+00  0.0000000E+00  0.0000000E+00
  0.1632653E+01  0.0000000E+00  0.8163265E-01  0.2979503E-01 -0.5183762E-01  0.9945425E+00  0.4256642E+00  0.0000000E+00  0.0000000E+00
  0.1673469E+01  0.0000000E+00  0.8163265E-01  0.2979545E-01 -0.5183720E-01  0.9945426E+00  0.4256642E+00  0.0000000E+00  0.0000000E+00
  0.1714286E+01  0.0000000E+00  0.8163265E-01  0.2979583E-01 -0.5183682E-01  0.9945426E+00  0.4256642E+00  0.0000000E+00  0.0000000E+00
  0.1755102E+01  0.0000000E+00  0.8163265E-01  0.2979617E-01 -0.5183648E-01  0.9945427E+00  0.4256643E+00  0.0000000E+00  0.0000000E+00
  0.1795918E+01  0.0000000E+00  0.8163265E-01  0.2979647E-01 -0.5183618E-01  0.9945427E+00  0.4256643E+00  0.0000000E+00  0.0000000E+00
  0.1836735E+01  0.0000000E+00  0.8163265E-01  0.2979673E-01 -0.5183593E-01  0.9945428E+00  0.4256643E+00  0.0000000E+00  0.0000000E+00
  0.1877551E+01  0.0000000E+00  0.8163265E-01  0.2979692E-01 -0.5183573E-01  0.9945428E+00  0.4256643E+00  0.0000000E+00  0.0000000E+00
  0.1918367E+01  0.0000000E+00  0.8163265E-01  0.2979707E-01 -0.5183558E-01  0.9945428E+00  0.4256643E+00  0.0000000E+00  0.0000000E+00
  0.1959184E+01  0.0000000E+00  0.8163265E-01  0.2979716E-01 -0.5183550E-01  0.9945428E+00  0.4256643E+00  0.0000000E+00  0.0000000E+00
  0.2000000E+01  0.0000000E+00  0.8163265E-01  0.2979718E-01 -0.5183547E-01  0.9945428E+00  0.4256643E+00  0.0000000E+00  0.0000000E+00
  0.0000000E+00  0.0000000E+00  0.1224490E+00  0.4900146E-01 -0.7344752E-01  0.9912458E+00  0.4242532E+00  0.0000000E+00  0.0000000E+00
  0.4081633E-01  0.0000000E+00  0.1224490E+00  0.4900142E-01 -0.7344756E-01  0.9912457E+00  0.4242532E+00  0.0000000E+00  0.0000000E+00
  0.8163265E-01  0.0000000E+00  0.1224490E+00  0.4900130E-01 -0.7344768E-01  0.9912457E+00  0.4242532E+00  0.0000000E+00  0.0000000E+00
  0.1224490E+00  0.0000000E+00  0.1224490E+00  0.4900109E-01 -0.7344789E-01  0.9912457E+00  0.4242532E+00  0.0000000E+00  0.0000000E+00
  0.1632653E+00  0.0000000E+00  0.1224490E+00  0.4900080E-01 -0.7344818E-01  0.9912456E+00  0.4242531E+00  0.0000000E+00  0.0000000E+00
  0.2040816E+00  0.0000000E+00  0.1224490E+00  0.4900044E-01 -0.7344854E-01  0.9912456E+00  0.4242531E+00  0.0000000E+00  0.0000000E+00
  0.2448980E+00  0.0000000E+00  0.1224490E+00  0.4900001E-01 -0.7344897E-01  0.9912455E+00  0.4242531E+00  0.0000000E+00  0.0000000E+00
  0.2857143E+00  0.0000000E+00  0.1224490E+00  0.4899951E-01 -0.7344947E-01  0.9912454E+00  0.4242530E+00  0.0000000E+00  0.0000000E+00
  0.3265306E+00  0.0000000E+00  0.1224490E+00  0.4899897E-01 -0.7345001E-01  0.9912454E+00  0.4242530E+00  0.0000000E+00  0.0000000E+00
  0.3673469E+00  0.0000000E+00  0.1224490E+00  0.4899838E-01 -0.7345060E-01  0.9912453E+00  0.4242530E+00  0.0000000E+00  0.0000000E+00
  0.4081633E+00  0.0000000E+00  0.1224490E+00  0.4899776E-01 -0.7345122E-01  0.9912452E+00  0.4242529E+00  0.0000000E+00  0.0000000E+00
  0.4489796E+00  0.0000000E+00  0.1224490E+00  0.4899711E-01 -0.7345187E-01  0.9912451E+00  0.4242529E+00  0.0000000E+00  0.0000000E+00
  0.4897959E+00  0.0000000E+00  0.1224490E+00  0.4899645E-01 -0.7345253E-01  0.9912450E+00  0.4242528E+00  0.0000000E+00  0.0000000E+00
  0.5306122E+00  0.0000000E+00  0.1224490E+00  0.4899580E-01 -0.7345318E-01  0.9912448E+00  0.4242528E+00  0.0000000E+00  0.0000000E+00
  0.5714286E+00  0.0000000E+00  0.1224490E+00  0.4899515E-01 -0.7345383E-01  0.9912447E+00  0.4242527E+00  0.0000000E+00  0.0000000E+00
  0.6122449E+00  0.0000000E+00  0.1224490E+00  0.4899453E-01 -0.7345445E-01  0.9912446E+00  0.4242527E+00  0.0000000E+00  0.0000000E+00
  0.6530612E+00  0.0000000E+00  0.1224490E+00  0.4899394E-01 -0.7345504E-01  0.9912445E+00  0.4242527E+00  0.0000000E+00  0.0000000E+00
  0.6938776E+00  0.0000000E+00  0.1224490E+00  0.4899340E-01 -0.7345558E-01  0.9912445E+00  0.4242526E+00  0.0000000E+00  0.0000000E+00
  0.7346939E+00  0.0000000E+00  0.1224490E+00  0.4899292E-01 -0.7345606E-01  0.9912444E+00  0.4242526E+00  0.0000000E+00  0.0000000E+00
  0.7755102E+00  0.0000000E+00  0.1224490E+00  0.4899250E-01 -0.7345648E-01  0.9912443E+00  0.4242526E+00  0.0000000E+00  0.0000000E+00
  0.8163265E+00  0.0000000E+00  0.1224490E+00  0.4899215E-01 -0.7345683E-01  0.9912443E+00  0.4242525E+00  0.0000000E+00  0.0000000E+00
  0.8571429E+00  0.0000000E+00  0.1224490E+00  0.4899188E-01 -0.7345710E-01  0.9912442E+00  0.4242525E+00  0.0000000E+00  0.0000000E+00
  0.8979592E+00  0.0000000E+00  0.1224490E+00  0.4899170E-01 -0.7345728E-01  0.9912442E+00  0.4242525E+00  0.0000000E+00  0.0000000E+00
  0.9387755E+00  0.0000000E+00  0.1224490E+00  0.4899161E-01 -0.7345737E-01  0.9912442E+00  0.4242525E+00  0.0000000E+00  0.0000000E+00
  0.9795918E+00  0.0000000E+00  0.1224490E+00  0.4899161E-01 -0.7345737E-01  0.9912442E+00  0.4242525E+00  0.0000000E+00  0.0000000E+00
  0.1020408E+01  0.0000000E+00  0.1224490E+00  0.4899170E-01 -0.7345728E-01  0.9912442E+00  0.4242525E+00  0.0000000E+00  0.0000000E+00
  0.1061224E+01  0.0000000E+00  0.1224490E+00  0.4899189E-01 -0.7345709E-01  0.9912442E+00  0.4242525E+00  0.0000000E+00  0.0000000E+00
  0.1102041E+01  0.0000000E+00  0.1224490E+00  0.4899217E-01 -0.7345681E-01  0.9912443E+00  0.4242525E+00  0.0000000E+00  0.0000000E+00
  0.1142857E+01  0.0000000E+00  0.1224490E+00  0.4899253E-01 -0.7345645E-01  0.9912443E+00  0.4242526E+00  0.0000000E+00  0.0000000E+00
  0.1183673E+01  0.0000000E+00  0.1224490E+00  0.4899298E-01 -0.7345600E-01  0.9912444E+00  0.4242526E+00  0.0000000E+00  0.0000000E+00
  0.1224490E+01  0.0000000E+00  0.1224490E+00  0.4899350E-01 -0.7345548E-01  0.9912445E+00  0.4242526E+00  0.0000000E+00  0.0000000E+00
  0.1265306E+01  0.0000000E+00  0.1224490E+00  0.4899409E-01 -0.7345489E-01  0.9912446E+00  0.4242527E+00  0.0000000E+00  0.0000000E+00
  0.1306122E+01  0.0000000E+00  0.1224490E+00  0.4899473E-01 -0.7345425E-01  0.9912447E+00  0.4242527E+00  0.0000000E+00  0.0000000E+00
  0.1346939E+01  0.0000000E+00  0.1224490E+00  0.4899542E-01 -0.7345356E-01  0.9912448E+00  0.4242528E+00  0.0000000E+00  0.0000000E+00
  0.1387755E+01  0.0000000E+00  0.1224490E+00  0.4899615E-01 -0.7345283E-01  0.9912449E+00  0.4242528E+00  0.0000000E+00  0.0000000E+00
  0.1428571E+01  0.0000000E+00  0.1224490E+00  0.4899690E-01 -0.7345208E-01  0.9912450E+00  0.4242529E+00  0.0000000E+00  0.0000000E+00
  0.1469388E+01  0.0000000E+00  0.1224490E+00  0.4899767E-01 -0.7345131E-01  0.9912451E+00  0.4242529E+00  0.0000000E+00  0.0000000E+00
  0.1510204E+01  0.0000000E+00  0.1224490E+00  0.4899844E-01 -0.7345054E-01  0.9912453E+00  0.4242530E+00  0.0000000E+00  0.0000000E+00
  0.1551020E+01  0.0000000E+00  0.1224490E+00  0.4899920E-01 -0.7344978E-01  0.9912454E+00  0.4242530E+00  0.0000000E+00  0.0000000E+00
  0.1591837E+01  0.0000000E+00  0.1224490E+00  0.4899993E-01 -0.7344905E-01  0.9912455E+00  0.4242531E+00  0.0000000E+00  0.0000000E+00
  0.1632653E+01  0.0000000E+00  0.1224490E+00  0.4900064E-01 -0.7344834E-01  0.9912456E+00  0.4242531E+00  0.0000000E+00  0.0000000E+00
  0.1673469E+01  0.0000000E+00  0.1224490E+00  0.4900130E-01 -0.7344768E-01  0.9912457E+00  0.4242532E+00  0.0000000E+00  0.0000000E+00
  0.1714286E+01  0.0000000E+00  0.1224490E+00  0.4900191E-01 -0.7344707E-01  0.9912458E+00  0.4242532E+00  0.0000000E+00  0.0000000E+00
  0.1755102E+01  0.0000000E+00  0.1224490E+00  0.4900245E-01 -0.7344653E-01  0.9912459E+00  0.4242533E+00  0.0000000E+00  0.0000000E+00
  0.1795918E+01  0.0000000E+00  0.1224490E+00  0.4900293E-01 -0.7344605E-01  0.9912460E+00  0.4242533E+00  0.0000000E+00  0.0000000E+00
  0.1836735E+01  0.0000000E+00  0.1224490E+00  0.4900333E-01 -0.7344565E-01  0.9912461E+00  0.4242533E+00  0.0000000E+00  0.0000000E+00
  0.1877551E+01  0.0000000E+00  0.1224490E+00  0.4900364E-01 -0.7344534E-01  0.9912461E+00  0.4242533E+00  0.0000000E+00  0.0000000E+00
  0.1918367E+01  0.0000000E+00  0.1224490E+00  0.4900387E-01 -0.7344511E-01  0.9912461E+00  0.4242533E+00  0.0000000E+00  0.0000000E+00
  0.1959184E+01  0.0000000E+00  0.1224490E+00  0.4900401E-01 -0.7344497E-01  0.9912462E+00  0.4242534E+00  0.0000000E+00  0.0000000E+00
  0.2000000E+01  0.0000000E+00  0.1224490E+00  0.4900405E-01 -0.7344493E-01  0.9912462E+00  0.4242534E+00  0.0000000E+00  0.0000000E+00
  0.0000000E+00  0.0000000E+00  0.1632653E+00  0.7065152E-01 -0.9261378E-01  0.9880421E+00  0.4228820E+00  0.0000000E+00  0.0000000E+00
  0.4081633E-01  0.0000000E+00  0.1632653E+00  0.7065146E-01 -0.9261384E-01  0.9880421E+00  0.4228820E+00  0.0000000E+00  0.0000000E+00
  0.8163265E-01  0.0000000E+00  0.1632653E+00  0.7065129E-01 -0.9261402E-01  0.9880421E+00  0.4228820E+00  0.0000000E+00  0.0000000E+00
  0.1224490E+00  0.0000000E+00  0.1632653E+00  0.7065100E-01 -0.9261431E-01  0.9880420E+00  0.4228820E+00  0.0000000E+00  0.0000000E+00
  0.1632653E+00  0.0000000E+00  0.1632653E+00  0.7065059E-01 -0.9261471E-01  0.9880420E+00  0.4228820E+00  0.0000000E+00  0.0000000E+00
  0.2040816E+00  0.0000000E+00  0.1632653E+00  0.7065008E-01 -0.9261522E-01  0.9880419E+00  0.4228819E+00  0.0000000E+00  0.0000000E+00
  0.2448980E+00  0.0000000E+00  0.1632653E+00  0.7064948E-01 -0.9261583E-01  0.9880418E+00  0.4228819E+00  0.0000000E+00  0.0000000E+00
  0.2857143E+00  0.0000000E+00  0.1632653E+00  0.7064879E-01 -0.9261652E-01  0.9880416E+00  0.4228818E+00  0.0000000E+00  0.0000000E+00
  0.3265306E+00  0.0000000E+00  0.1632653E+00  0.7064803E-01 -0.9261728E-01  0.9880415E+00  0.4228818E+00  0.0000000E+00  0.0000000E+00
  0.3673469E+00  0.0000000E+00  0.1632653E+00  0.7064720E-01 -0.9261810E-01  0.9880414E+00  0.4228817E+00  0.0000000E+00  0.0000000E+00
  0.4081633E+00  0.0000000E+00  0.1632653E+00  0.7064633E-01 -0.9261898E-01  0.9880412E+00  0.4228816E+00  0.0000000E+00  0.0000000E+00
  0.4489796E+00  0.0000000E+00  0.1632653E+00  0.7064543E-01 -0.9261988E-01  0.9880411E+00  0.4228816E+00  0.0000000E+00  0.0000000E+00
  0.4897959E+00  0.0000000E+00  0.1632653E+00  0.7064451E-01 -0.9262080E-01  0.9880409E+00  0.4228815E+00  0.0000000E+00  0.0000000E+00
  0.5306122E+00  0.0000000E+00  0.1632653E+00  0.7064359E-01 -0.9262172E-01  0.9880407E+00  0.4228814E+00  0.0000000E+00  0.0000000E+00
  0.5714286E+00  0.0000000E+00  0.1632653E+00  0.7064268E-01 -0.9262262E-01  0.9880406E+00  0.4228814E+00  0.0000000E+00  0.0000000E+00
  0.6122449E+00  0.0000000E+00  0.1632653E+00  0.7064181E-01 -0.9262349E-01  0.9880404E+00  0.4228813E+00  0.0000000E+00  0.0000000E+00
  0.6530612E+00  0.0000000E+00  0.1632653E+00  0.7064099E-01 -0.9262432E-01  0.9880403E+00  0.4228812E+00  0.0000000E+00  0.0000000E+00
  0.6938776E+00  0.0000000E+00  0.1632653E+00  0.7064023E-01 -0.9262508E-01  0.9880402E+00  0.4228812E+00  0.0000000E+00  0.0000000E+00
  0.7346939E+00  0.0000000E+00  0.1632653E+00  0.7063955E-01 -0.9262576E-01  0.9880401E+00  0.4228811E+00  0.0000000E+00  0.0000000E+00