title = "dataset feddes"
variables = "x", "y", "z", "vx", "vy", "vz"
zone t = "velocities, solution time =  8.000E+00 days        " i =   49, j =   49, k =    1,  f=point
  0.2040816E-01  0.0000000E+00  0.2040816E-01 -0.2318540E-08  0.0000000E+00 -0.8638759E-01
  0.6122449E-01  0.0000000E+00  0.2040816E-01  0.8337142E-09  0.0000000E+00 -0.8638759E-01
  0.1020408E+00  0.0000000E+00  0.2040816E-01  0.7684442E-08  0.0000000E+00 -0.8638758E-01
  0.1428571E+00  0.0000000E+00  0.2040816E-01  0.9322142E-08  0.0000000E+00 -0.8638756E-01
  0.1836735E+00  0.0000000E+00  0.2040816E-01  0.1050871E-07  0.0000000E+00 -0.8638754E-01
  0.2244898E+00  0.0000000E+00  0.2040816E-01  0.1000712E-07  0.0000000E+00 -0.8638752E-01
  0.2653061E+00  0.0000000E+00  0.2040816E-01  0.9097431E-08  0.0000000E+00 -0.8638750E-01
  0.3061225E+00  0.0000000E+00  0.2040816E-01  0.8683217E-08  0.0000000E+00 -0.8638748E-01
  0.3469388E+00  0.0000000E+00  0.2040816E-01  0.7933492E-08  0.0000000E+00 -0.8638746E-01
  0.3877551E+00  0.0000000E+00  0.2040816E-01  0.7428061E-08  0.0000000E+00 -0.8638744E-01
  0.4285714E+00  0.0000000E+00  0.2040816E-01  0.7303308E-08  0.0000000E+00 -0.8638742E-01
  0.4693878E+00  0.0000000E+00  0.2040816E-01  0.7296750E-08  0.0000000E+00 -0.8638741E-01
  0.5102041E+00  0.0000000E+00  0.2040816E-01  0.7466057E-08  0.0000000E+00 -0.8638739E-01
  0.5510204E+00  0.0000000E+00  0.2040816E-01  0.7727247E-08  0.0000000E+00 -0.8638737E-01
  0.5918368E+00  0.0000000E+00  0.2040816E-01  0.8005569E-08  0.0000000E+00 -0.8638735E-01
  0.6326531E+00  0.0000000E+00  0.2040816E-01  0.8413686E-08  0.0000000E+00 -0.8638734E-01
  0.6734694E+00  0.0000000E+00  0.2040816E-01  0.9036019E-08  0.0000000E+00 -0.8638732E-01
  0.7142857E+00  0.0000000E+00  0.2040816E-01  0.9793812E-08  0.0000000E+00 -0.8638729E-01
  0.7551020E+00  0.0000000E+00  0.2040816E-01  0.1048254E-07  0.0000000E+00 -0.8638727E-01
  0.7959183E+00  0.0000000E+00  0.2040816E-01  0.1085402E-07  0.0000000E+00 -0.8638725E-01
  0.8367347E+00  0.0000000E+00  0.2040816E-01  0.1072549E-07  0.0000000E+00 -0.8638722E-01
  0.8775510E+00  0.0000000E+00  0.2040816E-01  0.9945892E-08  0.0000000E+00 -0.8638720E-01
  0.9183673E+00  0.0000000E+00  0.2040816E-01  0.8355972E-08  0.0000000E+00 -0.8638718E-01
  0.9591837E+00  0.0000000E+00  0.2040816E-01  0.5836153E-08  0.0000000E+00 -0.8638716E-01
  0.1000000E+01  0.0000000E+00  0.2040816E-01  0.2172507E-08  0.0000000E+00 -0.8638715E-01
  0.1040816E+01  0.0000000E+00  0.2040816E-01 -0.1958805E-08  0.0000000E+00 -0.8638715E-01
  0.1081633E+01  0.0000000E+00  0.2040816E-01 -0.4104191E-08  0.0000000E+00 -0.8638716E-01
  0.1122449E+01  0.0000000E+00  0.2040816E-01 -0.8090019E-08  0.0000000E+00 -0.8638717E-01
  0.1163265E+01  0.0000000E+00  0.2040816E-01 -0.9716796E-08  0.0000000E+00 -0.8638719E-01
  0.1204082E+01  0.0000000E+00  0.2040816E-01 -0.9814110E-08  0.0000000E+00 -0.8638722E-01
  0.1244898E+01  0.0000000E+00  0.2040816E-01 -0.9329750E-08  0.0000000E+00 -0.8638724E-01
  0.1285714E+01  0.0000000E+00  0.2040816E-01 -0.8754481E-08  0.0000000E+00 -0.8638726E-01
  0.1326531E+01  0.0000000E+00  0.2040816E-01 -0.8280550E-08  0.0000000E+00 -0.8638728E-01
  0.1367347E+01  0.0000000E+00  0.2040816E-01 -0.7956918E-08  0.0000000E+00 -0.8638730E-01
  0.1408163E+01  0.0000000E+00  0.2040816E-01 -0.7792281E-08  0.0000000E+00 -0.8638731E-01
  0.1448980E+01  0.0000000E+00  0.2040816E-01 -0.7762052E-08  0.0000000E+00 -0.8638733E-01
  0.1489796E+01  0.0000000E+00  0.2040816E-01 -0.7858091E-08  0.0000000E+00 -0.8638735E-01
  0.1530612E+01  0.0000000E+00  0.2040816E-01 -0.8062142E-08  0.0000000E+00 -0.8638737E-01
  0.1571429E+01  0.0000000E+00  0.2040816E-01 -0.8360592E-08  0.0000000E+00 -0.8638739E-01
  0.1612245E+01  0.0000000E+00  0.2040816E-01 -0.8753183E-08  0.0000000E+00 -0.8638741E-01
  0.1653061E+01  0.0000000E+00  0.2040816E-01 -0.9216754E-08  0.0000000E+00 -0.8638743E-01
  0.1693878E+01  0.0000000E+00  0.2040816E-01 -0.9724481E-08  0.0000000E+00 -0.8638745E-01
  0.1734694E+01  0.0000000E+00  0.2040816E-01 -0.1022414E-07  0.0000000E+00 -0.8638747E-01
  0.1775510E+01  0.0000000E+00  0.2040816E-01 -0.1062198E-07  0.0000000E+00 -0.8638749E-01
  0.1816326E+01  0.0000000E+00  0.2040816E-01 -0.1078047E-07  0.0000000E+00 -0.8638752E-01
  0.1857143E+01  0.0000000E+00  0.2040816E-01 -0.1051627E-07  0.0000000E+00 -0.8638754E-01
  0.1897959E+01  0.0000000E+00  0.2040816E-01 -0.9637657E-08  0.0000000E+00 -0.8638757E-01
  0.1938776E+01  0.0000000E+00  0.2040816E-01 -0.8139849E-08  0.0000000E+00 -0.8638759E-01
  0.1989796E+01  0.0000000E+00  0.2040816E-01 -0.6633443E-08  0.0000000E+00 -0.8638760E-01
  0.2040816E-01  0.0000000E+00  0.6122449E-01 -0.3369930E-08  0.0000000E+00 -0.8638760E-01
  0.6122449E-01  0.0000000E+00  0.6122449E-01  0.3830060E-08  0.0000000E+00 -0.8638760E-01
  0.1020408E+00  0.0000000E+00  0.6122449E-01  0.2119220E-07  0.0000000E+00 -0.8638759E-01
  0.1428571E+00  0.0000000E+00  0.6122449E-01  0.2537313E-07  0.0000000E+00 -0.8638757E-01
  0.1836735E+00  0.0000000E+00  0.6122449E-01  0.2808118E-07  0.0000000E+00 -0.8638754E-01
  0.2244898E+00  0.0000000E+00  0.6122449E-01  0.2711925E-07  0.0000000E+00 -0.8638752E-01
  0.2653061E+00  0.0000000E+00  0.6122449E-01  0.2465819E-07  0.0000000E+00 -0.8638750E-01
  0.3061225E+00  0.0000000E+00  0.6122449E-01  0.2338009E-07  0.0000000E+00 -0.8638748E-01
  0.3469388E+00  0.0000000E+00  0.6122449E-01  0.2151193E-07  0.0000000E+00 -0.8638746E-01
  0.3877551E+00  0.0000000E+00  0.6122449E-01  0.2018147E-07  0.0000000E+00 -0.8638745E-01
  0.4285714E+00  0.0000000E+00  0.6122449E-01  0.1985524E-07  0.0000000E+00 -0.8638743E-01
  0.4693878E+00  0.0000000E+00  0.6122449E-01  0.1988173E-07  0.0000000E+00 -0.8638741E-01
  0.5102041E+00  0.0000000E+00  0.6122449E-01  0.2027860E-07  0.0000000E+00 -0.8638740E-01
  0.5510204E+00  0.0000000E+00  0.6122449E-01  0.2091095E-07  0.0000000E+00 -0.8638738E-01
  0.5918368E+00  0.0000000E+00  0.6122449E-01  0.2169302E-07  0.0000000E+00 -0.8638736E-01
  0.6326531E+00  0.0000000E+00  0.6122449E-01  0.2290571E-07  0.0000000E+00 -0.8638734E-01
  0.6734694E+00  0.0000000E+00  0.6122449E-01  0.2468908E-07  0.0000000E+00 -0.8638732E-01
  0.7142857E+00  0.0000000E+00  0.6122449E-01  0.2676700E-07  0.0000000E+00 -0.8638730E-01
  0.7551020E+00  0.0000000E+00  0.6122449E-01  0.2861731E-07  0.0000000E+00 -0.8638728E-01
  0.7959183E+00  0.0000000E+00  0.6122449E-01  0.2961890E-07  0.0000000E+00 -0.8638725E-01
  0.8367347E+00  0.0000000E+00  0.6122449E-01  0.2924477E-07  0.0000000E+00 -0.8638723E-01
  0.8775510E+00  0.0000000E+00  0.6122449E-01  0.2700329E-07  0.0000000E+00 -0.8638721E-01
  0.9183673E+00  0.0000000E+00  0.6122449E-01  0.2243774E-07  0.0000000E+00 -0.8638719E-01
  0.9591837E+00  0.0000000E+00  0.6122449E-01  0.1588204E-07  0.0000000E+00 -0.8638717E-01
  0.1000000E+01  0.0000000E+00  0.6122449E-01  0.6004909E-08  0.0000000E+00 -0.8638716E-01
  0.1040816E+01  0.0000000E+00  0.6122449E-01 -0.6078352E-08  0.0000000E+00 -0.8638716E-01
  0.1081633E+01  0.0000000E+00  0.6122449E-01 -0.1244078E-07  0.0000000E+00 -0.8638717E-01
  0.1122449E+01  0.0000000E+00  0.6122449E-01 -0.2198818E-07  0.0000000E+00 -0.8638719E-01
  0.1163265E+01  0.0000000E+00  0.6122449E-01 -0.2597599E-07  0.0000000E+00 -0.8638720E-01
  0.1204082E+01  0.0000000E+00  0.6122449E-01 -0.2626037E-07  0.0000000E+00 -0.8638723E-01
  0.1244898E+01  0.0000000E+00  0.6122449E-01 -0.2506541E-07  0.0000000E+00 -0.8638725E-01
  0.1285714E+01  0.0000000E+00  0.6122449E-01 -0.2360462E-07  0.0000000E+00 -0.8638727E-01
  0.1326531E+01  0.0000000E+00  0.6122449E-01 -0.2238677E-07  0.0000000E+00 -0.8638729E-01
  0.1367347E+01  0.0000000E+00  0.6122449E-01 -0.2154964E-07  0.0000000E+00 -0.8638730E-01
  0.1408163E+01  0.0000000E+00  0.6122449E-01 -0.2112660E-07  0.0000000E+00 -0.8638732E-01
  0.1448980E+01  0.0000000E+00  0.6122449E-01 -0.2105745E-07  0.0000000E+00 -0.8638734E-01
  0.1489796E+01  0.0000000E+00  0.6122449E-01 -0.2132126E-07  0.0000000E+00 -0.8638736E-01
  0.1530612E+01  0.0000000E+00  0.6122449E-01 -0.2188102E-07  0.0000000E+00 -0.8638737E-01
  0.1571429E+01  0.0000000E+00  0.6122449E-01 -0.2269692E-07  0.0000000E+00 -0.8638739E-01
  0.1612245E+01  0.0000000E+00  0.6122449E-01 -0.2376950E-07  0.0000000E+00 -0.8638741E-01
  0.1653061E+01  0.0000000E+00  0.6122449E-01 -0.2504267E-07  0.0000000E+00 -0.8638743E-01
  0.1693878E+01  0.0000000E+00  0.6122449E-01 -0.2644024E-07  0.0000000E+00 -0.8638745E-01
  0.1734694E+01  0.0000000E+00  0.6122449E-01 -0.2782052E-07  0.0000000E+00 -0.8638748E-01
  0.1775510E+01  0.0000000E+00  0.6122449E-01 -0.2892338E-07  0.0000000E+00 -0.8638750E-01
  0.1816326E+01  0.0000000E+00  0.6122449E-01 -0.2934634E-07  0.0000000E+00 -0.8638752E-01
  0.1857143E+01  0.0000000E+00  0.6122449E-01 -0.2852998E-07  0.0000000E+00 -0.8638755E-01
  0.1897959E+01  0.0000000E+00  0.6122449E-01 -0.2581141E-07  0.0000000E+00 -0.8638757E-01
  0.1938776E+01  0.0000000E+00  0.6122449E-01 -0.2090048E-07  0.0000000E+00 -0.8638759E-01
  0.1989796E+01  0.0000000E+00  0.6122449E-01 -0.1528066E-07  0.0000000E+00 -0.8638760E-01
  0.2040816E-01  0.0000000E+00  0.1020408E+00  0.3867946E-10  0.0000000E+00 -0.8638763E-01
  0.6122449E-01  0.0000000E+00  0.1020408E+00  0.8671793E-08  0.0000000E+00 -0.8638762E-01
  0.1020408E+00  0.0000000E+00  0.1020408E+00  0.3160656E-07  0.0000000E+00 -0.8638761E-01
  0.1428571E+00  0.0000000E+00  0.1020408E+00  0.3754213E-07  0.0000000E+00 -0.8638759E-01
  0.1836735E+00  0.0000000E+00  0.1020408E+00  0.4058650E-07  0.0000000E+00 -0.8638757E-01
  0.2244898E+00  0.0000000E+00  0.1020408E+00  0.3970481E-07  0.0000000E+00 -0.8638755E-01
  0.2653061E+00  0.0000000E+00  0.1020408E+00  0.3623144E-07  0.0000000E+00 -0.8638753E-01
  0.3061225E+00  0.0000000E+00  0.1020408E+00  0.3408991E-07  0.0000000E+00 -0.8638751E-01
  0.3469388E+00  0.0000000E+00  0.1020408E+00  0.3162195E-07  0.0000000E+00 -0.8638749E-01
  0.3877551E+00  0.0000000E+00  0.1020408E+00  0.2980941E-07  0.0000000E+00 -0.8638747E-01
  0.4285714E+00  0.0000000E+00  0.1020408E+00  0.2933342E-07  0.0000000E+00 -0.8638746E-01
  0.4693878E+00  0.0000000E+00  0.1020408E+00  0.2937789E-07  0.0000000E+00 -0.8638744E-01
  0.5102041E+00  0.0000000E+00  0.1020408E+00  0.2983837E-07  0.0000000E+00 -0.8638743E-01
  0.5510204E+00  0.0000000E+00  0.1020408E+00  0.3068624E-07  0.0000000E+00 -0.8638741E-01
  0.5918368E+00  0.0000000E+00  0.1020408E+00  0.3194125E-07  0.0000000E+00 -0.8638739E-01
  0.6326531E+00  0.0000000E+00  0.1020408E+00  0.3391951E-07  0.0000000E+00 -0.8638737E-01
  0.6734694E+00  0.0000000E+00  0.1020408E+00  0.3669030E-07  0.0000000E+00 -0.8638735E-01
  0.7142857E+00  0.0000000E+00  0.1020408E+00  0.3977618E-07  0.0000000E+00 -0.8638733E-01
  0.7551020E+00  0.0000000E+00  0.1020408E+00  0.4247039E-07  0.0000000E+00 -0.8638731E-01
  0.7959183E+00  0.0000000E+00  0.1020408E+00  0.4396052E-07  0.0000000E+00 -0.8638728E-01
  0.8367347E+00  0.0000000E+00  0.1020408E+00  0.4342244E-07  0.0000000E+00 -0.8638726E-01
  0.8775510E+00  0.0000000E+00  0.1020408E+00  0.3994522E-07  0.0000000E+00 -0.8638724E-01
  0.9183673E+00  0.0000000E+00  0.1020408E+00  0.3260115E-07  0.0000000E+00 -0.8638722E-01
  0.9591837E+00  0.0000000E+00  0.1020408E+00  0.2231664E-07  0.0000000E+00 -0.8638720E-01
  0.1000000E+01  0.0000000E+00  0.1020408E+00  0.8712557E-08  0.0000000E+00 -0.8638720E-01
  0.1040816E+01  0.0000000E+00  0.1020408E+00 -0.9952338E-08  0.0000000E+00 -0.8638720E-01
  0.1081633E+01  0.0000000E+00  0.1020408E+00 -0.2074248E-07  0.0000000E+00 -0.8638721E-01
  0.1122449E+01  0.0000000E+00  0.1020408E+00 -0.3248123E-07  0.0000000E+00 -0.8638722E-01
  0.1163265E+01  0.0000000E+00  0.1020408E+00 -0.3743787E-07  0.0000000E+00 -0.8638724E-01
  0.1204082E+01  0.0000000E+00  0.1020408E+00 -0.3783618E-07  0.0000000E+00 -0.8638726E-01
  0.1244898E+01  0.0000000E+00  0.1020408E+00 -0.3630667E-07  0.0000000E+00 -0.8638728E-01
  0.1285714E+01  0.0000000E+00  0.1020408E+00 -0.3437240E-07  0.0000000E+00 -0.8638730E-01
  0.1326531E+01  0.0000000E+00  0.1020408E+00 -0.3273462E-07  0.0000000E+00 -0.8638732E-01
  0.1367347E+01  0.0000000E+00  0.1020408E+00 -0.3160099E-07  0.0000000E+00 -0.8638734E-01
  0.1408163E+01  0.0000000E+00  0.1020408E+00 -0.3103665E-07  0.0000000E+00 -0.8638735E-01
  0.1448980E+01  0.0000000E+00  0.1020408E+00 -0.3097001E-07  0.0000000E+00 -0.8638737E-01
  0.1489796E+01  0.0000000E+00  0.1020408E+00 -0.3136907E-07  0.0000000E+00 -0.8638739E-01
  0.1530612E+01  0.0000000E+00  0.1020408E+00 -0.3220303E-07  0.0000000E+00 -0.8638740E-01
  0.1571429E+01  0.0000000E+00  0.1020408E+00 -0.3341475E-07  0.0000000E+00 -0.8638742E-01
  0.1612245E+01  0.0000000E+00  0.1020408E+00 -0.3500483E-07  0.0000000E+00 -0.8638744E-01
  0.1653061E+01  0.0000000E+00  0.1020408E+00 -0.3690242E-07  0.0000000E+00 -0.8638746E-01
  0.1693878E+01  0.0000000E+00  0.1020408E+00 -0.3898879E-07  0.0000000E+00 -0.8638748E-01
  0.1734694E+01  0.0000000E+00  0.1020408E+00 -0.4105479E-07  0.0000000E+00 -0.8638750E-01
  0.1775510E+01  0.0000000E+00  0.1020408E+00 -0.4270868E-07  0.0000000E+00 -0.8638753E-01
  0.1816326E+01  0.0000000E+00  0.1020408E+00 -0.4329277E-07  0.0000000E+00 -0.8638755E-01
  0.1857143E+01  0.0000000E+00  0.1020408E+00 -0.4186290E-07  0.0000000E+00 -0.8638757E-01
  0.1897959E+01  0.0000000E+00  0.1020408E+00 -0.3723707E-07  0.0000000E+00 -0.8638759E-01
  0.1938776E+01  0.0000000E+00  0.1020408E+00 -0.2847383E-07  0.0000000E+00 -0.8638761E-01
  0.1989796E+01  0.0000000E+00  0.1020408E+00 -0.1767555E-07  0.0000000E+00 -0.8638762E-01
  0.2040816E-01  0.0000000E+00  0.1428571E+00  0.4062762E-08  0.0000000E+00 -0.8638769E-01
  0.6122449E-01  0.0000000E+00  0.1428571E+00  0.1401537E-07  0.0000000E+00 -0.8638768E-01
  0.1020408E+00  0.0000000E+00  0.1428571E+00  0.3984602E-07  0.0000000E+00 -0.8638767E-01
  0.1428571E+00  0.0000000E+00  0.1428571E+00  0.4734705E-07  0.0000000E+00 -0.8638765E-01
  0.1836735E+00  0.0000000E+00  0.1428571E+00  0.5036891E-07  0.0000000E+00 -0.8638763E-01
  0.2244898E+00  0.0000000E+00  0.1428571E+00  0.4946288E-07  0.0000000E+00 -0.8638761E-01
  0.2653061E+00  0.0000000E+00  0.1428571E+00  0.4539713E-07  0.0000000E+00 -0.8638759E-01
  0.3061225E+00  0.0000000E+00  0.1428571E+00  0.4256671E-07  0.0000000E+00 -0.8638757E-01
  0.3469388E+00  0.0000000E+00  0.1428571E+00  0.3970633E-07  0.0000000E+00 -0.8638755E-01
  0.3877551E+00  0.0000000E+00  0.1428571E+00  0.3760347E-07  0.0000000E+00 -0.8638754E-01
  0.4285714E+00  0.0000000E+00  0.1428571E+00  0.3696327E-07  0.0000000E+00 -0.8638752E-01
  0.4693878E+00  0.0000000E+00  0.1428571E+00  0.3695504E-07  0.0000000E+00 -0.8638751E-01
  0.5102041E+00  0.0000000E+00  0.1428571E+00  0.3744057E-07  0.0000000E+00 -0.8638749E-01
  0.5510204E+00  0.0000000E+00  0.1428571E+00  0.3850682E-07  0.0000000E+00 -0.8638747E-01
  0.5918368E+00  0.0000000E+00  0.1428571E+00  0.4024489E-07  0.0000000E+00 -0.8638746E-01
  0.6326531E+00  0.0000000E+00  0.1428571E+00  0.4290822E-07  0.0000000E+00 -0.8638744E-01
  0.6734694E+00  0.0000000E+00  0.1428571E+00  0.4648143E-07  0.0000000E+00 -0.8638742E-01
  0.7142857E+00  0.0000000E+00  0.1428571E+00  0.5035824E-07  0.0000000E+00 -0.8638740E-01
  0.7551020E+00  0.0000000E+00  0.1428571E+00  0.5370569E-07  0.0000000E+00 -0.8638738E-01
  0.7959183E+00  0.0000000E+00  0.1428571E+00  0.5558935E-07  0.0000000E+00 -0.8638735E-01
  0.8367347E+00  0.0000000E+00  0.1428571E+00  0.5494435E-07  0.0000000E+00 -0.8638733E-01
  0.8775510E+00  0.0000000E+00  0.1428571E+00  0.5044408E-07  0.0000000E+00 -0.8638731E-01
  0.9183673E+00  0.0000000E+00  0.1428571E+00  0.4056452E-07  0.0000000E+00 -0.8638729E-01
  0.9591837E+00  0.0000000E+00  0.1428571E+00  0.2586962E-07  0.0000000E+00 -0.8638727E-01
  0.1000000E+01  0.0000000E+00  0.1428571E+00  0.9769897E-08  0.0000000E+00 -0.8638727E-01
  0.1040816E+01  0.0000000E+00  0.1428571E+00 -0.1270442E-07  0.0000000E+00 -0.8638727E-01
  0.1081633E+01  0.0000000E+00  0.1428571E+00 -0.2850346E-07  0.0000000E+00 -0.8638728E-01
  0.1122449E+01  0.0000000E+00  0.1428571E+00 -0.4098061E-07  0.0000000E+00 -0.8638730E-01
  0.1163265E+01  0.0000000E+00  0.1428571E+00 -0.4611616E-07  0.0000000E+00 -0.8638731E-01
  0.1204082E+01  0.0000000E+00  0.1428571E+00 -0.4650174E-07  0.0000000E+00 -0.8638733E-01
  0.1244898E+01  0.0000000E+00  0.1428571E+00 -0.4481426E-07  0.0000000E+00 -0.8638735E-01
  0.1285714E+01  0.0000000E+00  0.1428571E+00 -0.4264592E-07  0.0000000E+00 -0.8638737E-01
  0.1326531E+01  0.0000000E+00  0.1428571E+00 -0.4078891E-07  0.0000000E+00 -0.8638739E-01
  0.1367347E+01  0.0000000E+00  0.1428571E+00 -0.3950087E-07  0.0000000E+00 -0.8638740E-01
  0.1408163E+01  0.0000000E+00  0.1428571E+00 -0.3887389E-07  0.0000000E+00 -0.8638742E-01
  0.1448980E+01  0.0000000E+00  0.1428571E+00 -0.3884253E-07  0.0000000E+00 -0.8638744E-01
  0.1489796E+01  0.0000000E+00  0.1428571E+00 -0.3936338E-07  0.0000000E+00 -0.8638745E-01
  0.1530612E+01  0.0000000E+00  0.1428571E+00 -0.4041944E-07  0.0000000E+00 -0.8638747E-01
  0.1571429E+01  0.0000000E+00  0.1428571E+00 -0.4195057E-07  0.0000000E+00 -0.8638749E-01
  0.1612245E+01  0.0000000E+00  0.1428571E+00 -0.4395322E-07  0.0000000E+00 -0.8638751E-01
  0.1653061E+01  0.0000000E+00  0.1428571E+00 -0.4634662E-07  0.0000000E+00 -0.8638752E-01
  0.1693878E+01  0.0000000E+00  0.1428571E+00 -0.4897543E-07  0.0000000E+00 -0.8638754E-01
  0.1734694E+01  0.0000000E+00  0.1428571E+00 -0.5157672E-07  0.0000000E+00 -0.8638757E-01
  0.1775510E+01  0.0000000E+00  0.1428571E+00 -0.5365943E-07  0.0000000E+00 -0.8638759E-01
  0.1816326E+01  0.0000000E+00  0.1428571E+00 -0.5431445E-07  0.0000000E+00 -0.8638761E-01
  0.1857143E+01  0.0000000E+00  0.1428571E+00 -0.5217685E-07  0.0000000E+00 -0.8638763E-01
  0.1897959E+01  0.0000000E+00  0.1428571E+00 -0.4567976E-07  0.0000000E+00 -0.8638765E-01
  0.1938776E+01  0.0000000E+00  0.1428571E+00 -0.3348287E-07  0.0000000E+00 -0.8638767E-01
  0.1989796E+01  0.0000000E+00  0.1428571E+00 -0.1802989E-07  0.0000000E+00 -0.8638768E-01
  0.2040816E-01  0.0000000E+00  0.1836735E+00  0.7371410E-08  0.0000000E+00 -0.8638779E-01
  0.6122449E-01  0.0000000E+00  0.1836735E+00  0.1900337E-07  0.0000000E+00 -0.8638778E-01
  0.1020408E+00  0.0000000E+00  0.1836735E+00  0.4641675E-07  0.0000000E+00 -0.8638777E-01
  0.1428571E+00  0.0000000E+00  0.1836735E+00  0.5515217E-07  0.0000000E+00 -0.8638775E-01
  0.1836735E+00  0.0000000E+00  0.1836735E+00  0.5814475E-07  0.0000000E+00 -0.8638773E-01
  0.2244898E+00  0.0000000E+00  0.1836735E+00  0.5711289E-07  0.0000000E+00 -0.8638771E-01
  0.2653061E+00  0.0000000E+00  0.1836735E+00  0.5267613E-07  0.0000000E+00 -0.8638770E-01
  0.3061225E+00  0.0000000E+00  0.1836735E+00  0.4937800E-07  0.0000000E+00 -0.8638768E-01
  0.3469388E+00  0.0000000E+00  0.1836735E+00  0.4623429E-07  0.0000000E+00 -0.8638766E-01
  0.3877551E+00  0.0000000E+00  0.1836735E+00  0.4389496E-07  0.0000000E+00 -0.8638764E-01
  0.4285714E+00  0.0000000E+00  0.1836735E+00  0.4307063E-07  0.0000000E+00 -0.8638763E-01
  0.4693878E+00  0.0000000E+00  0.1836735E+00  0.4300637E-07  0.0000000E+00 -0.8638761E-01
  0.5102041E+00  0.0000000E+00  0.1836735E+00  0.4355807E-07  0.0000000E+00 -0.8638760E-01
  0.5510204E+00  0.0000000E+00  0.1836735E+00  0.4485546E-07  0.0000000E+00 -0.8638758E-01
  0.5918368E+00  0.0000000E+00  0.1836735E+00  0.4703108E-07  0.0000000E+00 -0.8638757E-01
  0.6326531E+00  0.0000000E+00  0.1836735E+00  0.5026596E-07  0.0000000E+00 -0.8638755E-01
  0.6734694E+00  0.0000000E+00  0.1836735E+00  0.5446700E-07  0.0000000E+00 -0.8638753E-01
  0.7142857E+00  0.0000000E+00  0.1836735E+00  0.5895736E-07  0.0000000E+00 -0.8638751E-01
  0.7551020E+00  0.0000000E+00  0.1836735E+00  0.6280710E-07  0.0000000E+00 -0.8638749E-01
  0.7959183E+00  0.0000000E+00  0.1836735E+00  0.6496211E-07  0.0000000E+00 -0.8638747E-01
  0.8367347E+00  0.0000000E+00  0.1836735E+00  0.6416131E-07  0.0000000E+00 -0.8638744E-01
  0.8775510E+00  0.0000000E+00  0.1836735E+00  0.5875117E-07  0.0000000E+00 -0.8638742E-01
  0.9183673E+00  0.0000000E+00  0.1836735E+00  0.4675176E-07  0.0000000E+00 -0.8638740E-01
  0.9591837E+00  0.0000000E+00  0.1836735E+00  0.2795186E-07  0.0000000E+00 -0.8638739E-01
  0.1000000E+01  0.0000000E+00  0.1836735E+00  0.8633244E-08  0.0000000E+00 -0.8638739E-01
  0.1040816E+01  0.0000000E+00  0.1836735E+00 -0.1400554E-07  0.0000000E+00 -0.8638739E-01
  0.1081633E+01  0.0000000E+00  0.1836735E+00 -0.3499331E-07  0.0000000E+00 -0.8638740E-01
  0.1122449E+01  0.0000000E+00  0.1836735E+00 -0.4786051E-07  0.0000000E+00 -0.8638741E-01
  0.1163265E+01  0.0000000E+00  0.1836735E+00 -0.5282074E-07  0.0000000E+00 -0.8638743E-01
  0.1204082E+01  0.0000000E+00  0.1836735E+00 -0.5307421E-07  0.0000000E+00 -0.8638745E-01
  0.1244898E+01  0.0000000E+00  0.1836735E+00 -0.5128618E-07  0.0000000E+00 -0.8638747E-01
  0.1285714E+01  0.0000000E+00  0.1836735E+00 -0.4901281E-07  0.0000000E+00 -0.8638748E-01
  0.1326531E+01  0.0000000E+00  0.1836735E+00 -0.4706106E-07  0.0000000E+00 -0.8638750E-01
  0.1367347E+01  0.0000000E+00  0.1836735E+00 -0.4571294E-07  0.0000000E+00 -0.8638751E-01
  0.1408163E+01  0.0000000E+00  0.1836735E+00 -0.4507557E-07  0.0000000E+00 -0.8638753E-01
  0.1448980E+01  0.0000000E+00  0.1836735E+00 -0.4509723E-07  0.0000000E+00 -0.8638755E-01
  0.1489796E+01  0.0000000E+00  0.1836735E+00 -0.4572834E-07  0.0000000E+00 -0.8638756E-01
  0.1530612E+01  0.0000000E+00  0.1836735E+00 -0.4696483E-07  0.0000000E+00 -0.8638758E-01
  0.1571429E+01  0.0000000E+00  0.1836735E+00 -0.4875137E-07  0.0000000E+00 -0.8638760E-01
  0.1612245E+01  0.0000000E+00  0.1836735E+00 -0.5107642E-07  0.0000000E+00 -0.8638761E-01
  0.1653061E+01  0.0000000E+00  0.1836735E+00 -0.5385010E-07  0.0000000E+00 -0.8638763E-01
  0.1693878E+01  0.0000000E+00  0.1836735E+00 -0.5688709E-07  0.0000000E+00 -0.8638765E-01
  0.1734694E+01  0.0000000E+00  0.1836735E+00 -0.5987687E-07  0.0000000E+00 -0.8638767E-01
  0.1775510E+01  0.0000000E+00  0.1836735E+00 -0.6226691E-07  0.0000000E+00 -0.8638769E-01
  0.1816326E+01  0.0000000E+00  0.1836735E+00 -0.6295928E-07  0.0000000E+00 -0.8638771E-01
  0.1857143E+01  0.0000000E+00  0.1836735E+00 -0.6012435E-07  0.0000000E+00 -0.8638774E-01
  0.1897959E+01  0.0000000E+00  0.1836735E+00 -0.5181505E-07  0.0000000E+00 -0.8638775E-01
  0.1938776E+01  0.0000000E+00  0.1836735E+00 -0.3698767E-07  0.0000000E+00 -0.8638777E-01
  0.1989796E+01  0.0000000E+00  0.1836735E+00 -0.1784676E-07  0.0000000E+00 -0.8638778E-01
  0.2040816E-01  0.0000000E+00  0.2244898E+00  0.9938709E-08  0.0000000E+00 -0.8638794E-01
  0.6122449E-01  0.0000000E+00  0.2244898E+00  0.2324576E-07  0.0000000E+00 -0.8638793E-01
  0.1020408E+00  0.0000000E+00  0.2244898E+00  0.5164149E-07  0.0000000E+00 -0.8638792E-01
  0.1428571E+00  0.0000000E+00  0.2244898E+00  0.6127826E-07  0.0000000E+00 -0.8638790E-01
  0.1836735E+00  0.0000000E+00  0.2244898E+00  0.6425255E-07  0.0000000E+00 -0.8638789E-01
  0.2244898E+00  0.0000000E+00  0.2244898E+00  0.6311952E-07  0.0000000E+00 -0.8638787E-01
  0.2653061E+00  0.0000000E+00  0.2244898E+00  0.5843095E-07  0.0000000E+00 -0.8638785E-01
  0.3061225E+00  0.0000000E+00  0.2244898E+00  0.5478809E-07  0.0000000E+00 -0.8638783E-01
  0.3469388E+00  0.0000000E+00  0.2244898E+00  0.5142242E-07  0.0000000E+00 -0.8638781E-01
  0.3877551E+00  0.0000000E+00  0.2244898E+00  0.4889461E-07  0.0000000E+00 -0.8638780E-01
  0.4285714E+00  0.0000000E+00  0.2244898E+00  0.4790910E-07  0.0000000E+00 -0.8638778E-01
  0.4693878E+00  0.0000000E+00  0.2244898E+00  0.4780196E-07  0.0000000E+00 -0.8638777E-01
  0.5102041E+00  0.0000000E+00  0.2244898E+00  0.4845126E-07  0.0000000E+00 -0.8638776E-01
  0.5510204E+00  0.0000000E+00  0.2244898E+00  0.4997930E-07  0.0000000E+00 -0.8638774E-01
  0.5918368E+00  0.0000000E+00  0.2244898E+00  0.5252591E-07  0.0000000E+00 -0.8638772E-01
  0.6326531E+00  0.0000000E+00  0.2244898E+00  0.5621960E-07  0.0000000E+00 -0.8638771E-01
  0.6734694E+00  0.0000000E+00  0.2244898E+00  0.6090632E-07  0.0000000E+00 -0.8638769E-01
  0.7142857E+00  0.0000000E+00  0.2244898E+00  0.6587141E-07  0.0000000E+00 -0.8638767E-01
  0.7551020E+00  0.0000000E+00  0.2244898E+00  0.7011359E-07  0.0000000E+00 -0.8638765E-01
  0.7959183E+00  0.0000000E+00  0.2244898E+00  0.7244021E-07  0.0000000E+00 -0.8638763E-01
  0.8367347E+00  0.0000000E+00  0.2244898E+00  0.7139475E-07  0.0000000E+00 -0.8638760E-01
  0.8775510E+00  0.0000000E+00  0.2244898E+00  0.6508150E-07  0.0000000E+00 -0.8638758E-01
  0.9183673E+00  0.0000000E+00  0.2244898E+00  0.5134172E-07  0.0000000E+00 -0.8638757E-01
  0.9591837E+00  0.0000000E+00  0.2244898E+00  0.2955603E-07  0.0000000E+00 -0.8638755E-01
  0.1000000E+01  0.0000000E+00  0.2244898E+00  0.5958742E-08  0.0000000E+00 -0.8638755E-01
  0.1040816E+01  0.0000000E+00  0.2244898E+00 -0.1529913E-07  0.0000000E+00 -0.8638756E-01
  0.1081633E+01  0.0000000E+00  0.2244898E+00 -0.3962078E-07  0.0000000E+00 -0.8638756E-01
  0.1122449E+01  0.0000000E+00  0.2244898E+00 -0.5307847E-07  0.0000000E+00 -0.8638758E-01
  0.1163265E+01  0.0000000E+00  0.2244898E+00 -0.5794509E-07  0.0000000E+00 -0.8638759E-01
  0.1204082E+01  0.0000000E+00  0.2244898E+00 -0.5806616E-07  0.0000000E+00 -0.8638761E-01
  0.1244898E+01  0.0000000E+00  0.2244898E+00 -0.5619656E-07  0.0000000E+00 -0.8638763E-01
  0.1285714E+01  0.0000000E+00  0.2244898E+00 -0.5387492E-07  0.0000000E+00 -0.8638764E-01
  0.1326531E+01  0.0000000E+00  0.2244898E+00 -0.5189399E-07  0.0000000E+00 -0.8638766E-01
  0.1367347E+01  0.0000000E+00  0.2244898E+00 -0.5053880E-07  0.0000000E+00 -0.8638768E-01
  0.1408163E+01  0.0000000E+00  0.2244898E+00 -0.4992028E-07  0.0000000E+00 -0.8638769E-01
  0.1448980E+01  0.0000000E+00  0.2244898E+00 -0.4999979E-07  0.0000000E+00 -0.8638771E-01
  0.1489796E+01  0.0000000E+00  0.2244898E+00 -0.5072766E-07  0.0000000E+00 -0.8638772E-01
  0.1530612E+01  0.0000000E+00  0.2244898E+00 -0.5211074E-07  0.0000000E+00 -0.8638774E-01
  0.1571429E+01  0.0000000E+00  0.2244898E+00 -0.5409909E-07  0.0000000E+00 -0.8638775E-01
  0.1612245E+01  0.0000000E+00  0.2244898E+00 -0.5666808E-07  0.0000000E+00 -0.8638777E-01
  0.1653061E+01  0.0000000E+00  0.2244898E+00 -0.5972112E-07  0.0000000E+00 -0.8638779E-01
  0.1693878E+01  0.0000000E+00  0.2244898E+00 -0.6305635E-07  0.0000000E+00 -0.8638781E-01
  0.1734694E+01  0.0000000E+00  0.2244898E+00 -0.6631352E-07  0.0000000E+00 -0.8638782E-01
  0.1775510E+01  0.0000000E+00  0.2244898E+00 -0.6888260E-07  0.0000000E+00 -0.8638785E-01
  0.1816326E+01  0.0000000E+00  0.2244898E+00 -0.6958412E-07  0.0000000E+00 -0.8638787E-01
  0.1857143E+01  0.0000000E+00  0.2244898E+00 -0.6622617E-07  0.0000000E+00 -0.8638789E-01
  0.1897959E+01  0.0000000E+00  0.2244898E+00 -0.5628546E-07  0.0000000E+00 -0.8638790E-01
  0.1938776E+01  0.0000000E+00  0.2244898E+00 -0.3945405E-07  0.0000000E+00 -0.8638792E-01
  0.1989796E+01  0.0000000E+00  0.2244898E+00 -0.1749058E-07  0.0000000E+00 -0.8638792E-01
  0.2040816E-01  0.0000000E+00  0.2653061E+00  0.1203570E-07  0.0000000E+00 -0.8638814E-01
  0.6122449E-01  0.0000000E+00  0.2653061E+00  0.2673435E-07  0.0000000E+00 -0.8638813E-01
  0.1020408E+00  0.0000000E+00  0.2653061E+00  0.5570563E-07  0.0000000E+00 -0.8638812E-01
  0.1428571E+00  0.0000000E+00  0.2653061E+00  0.6601901E-07  0.0000000E+00 -0.8638810E-01
  0.1836735E+00  0.0000000E+00  0.2653061E+00  0.6895081E-07  0.0000000E+00 -0.8638809E-01
  0.2244898E+00  0.0000000E+00  0.2653061E+00  0.6775200E-07  0.0000000E+00 -0.8638807E-01
  0.2653061E+00  0.0000000E+00  0.2653061E+00  0.6289414E-07  0.0000000E+00 -0.8638805E-01
  0.3061225E+00  0.0000000E+00  0.2653061E+00  0.5897884E-07  0.0000000E+00 -0.8638803E-01
  0.3469388E+00  0.0000000E+00  0.2653061E+00  0.5543137E-07  0.0000000E+00 -0.8638802E-01
  0.3877551E+00  0.0000000E+00  0.2653061E+00  0.5276616E-07  0.0000000E+00 -0.8638800E-01
  0.4285714E+00  0.0000000E+00  0.2653061E+00  0.5167325E-07  0.0000000E+00 -0.8638799E-01
  0.4693878E+00  0.0000000E+00  0.2653061E+00  0.5154572E-07  0.0000000E+00 -0.8638798E-01
  0.5102041E+00  0.0000000E+00  0.2653061E+00  0.5229126E-07  0.0000000E+00 -0.8638796E-01
  0.5510204E+00  0.0000000E+00  0.2653061E+00  0.5402327E-07  0.0000000E+00 -0.8638795E-01
  0.5918368E+00  0.0000000E+00  0.2653061E+00  0.5687269E-07  0.0000000E+00 -0.8638793E-01
  0.6326531E+00  0.0000000E+00  0.2653061E+00  0.6092867E-07  0.0000000E+00 -0.8638792E-01
  0.6734694E+00  0.0000000E+00  0.2653061E+00  0.6599099E-07  0.0000000E+00 -0.8638790E-01
  0.7142857E+00  0.0000000E+00  0.2653061E+00  0.7132208E-07  0.0000000E+00 -0.8638788E-01
  0.7551020E+00  0.0000000E+00  0.2653061E+00  0.7587216E-07  0.0000000E+00 -0.8638786E-01
  0.7959183E+00  0.0000000E+00  0.2653061E+00  0.7829838E-07  0.0000000E+00 -0.8638784E-01
  0.8367347E+00  0.0000000E+00  0.2653061E+00  0.7689861E-07  0.0000000E+00 -0.8638782E-01
  0.8775510E+00  0.0000000E+00  0.2653061E+00  0.6952196E-07  0.0000000E+00 -0.8638780E-01
  0.9183673E+00  0.0000000E+00  0.2653061E+00  0.5418090E-07  0.0000000E+00 -0.8638778E-01
  0.9591837E+00  0.0000000E+00  0.2653061E+00  0.3175566E-07  0.0000000E+00 -0.8638777E-01
  0.1000000E+01  0.0000000E+00  0.2653061E+00  0.3139600E-08  0.0000000E+00 -0.8638777E-01
  0.1040816E+01  0.0000000E+00  0.2653061E+00 -0.1757728E-07  0.0000000E+00 -0.8638777E-01
  0.1081633E+01  0.0000000E+00  0.2653061E+00 -0.4287037E-07  0.0000000E+00 -0.8638778E-01
  0.1122449E+01  0.0000000E+00  0.2653061E+00 -0.5678112E-07  0.0000000E+00 -0.8638779E-01
  0.1163265E+01  0.0000000E+00  0.2653061E+00 -0.6170511E-07  0.0000000E+00 -0.8638781E-01
  0.1204082E+01  0.0000000E+00  0.2653061E+00 -0.6177857E-07  0.0000000E+00 -0.8638782E-01
  0.1244898E+01  0.0000000E+00  0.2653061E+00 -0.5986350E-07  0.0000000E+00 -0.8638784E-01
  0.1285714E+01  0.0000000E+00  0.2653061E+00 -0.5752310E-07  0.0000000E+00 -0.8638786E-01
  0.1326531E+01  0.0000000E+00  0.2653061E+00 -0.5554350E-07  0.0000000E+00 -0.8638787E-01