title = "dataset feddes"
variables = "x", "y", "z", "vx", "vy", "vz"
zone t = "velocities, solution time =  1.600E+01 days        " i =   49, j =   49, k =    1,  f=point
  0.2040816E-01  0.0000000E+00  0.2040816E-01  0.1138288E-06  0.0000000E+00 -0.8613201E-01
  0.6122449E-01  0.0000000E+00  0.2040816E-01  0.3402259E-06  0.0000000E+00 -0.8613150E-01
  0.1020408E+00  0.0000000E+00  0.2040816E-01  0.5618495E-06  0.0000000E+00 -0.8613047E-01
  0.1428571E+00  0.0000000E+00  0.2040816E-01  0.7748004E-06  0.0000000E+00 -0.8612895E-01
  0.1836735E+00  0.0000000E+00  0.2040816E-01  0.9752130E-06  0.0000000E+00 -0.8612696E-01
  0.2244898E+00  0.0000000E+00  0.2040816E-01  0.1160177E-05  0.0000000E+00 -0.8612453E-01
  0.2653061E+00  0.0000000E+00  0.2040816E-01  0.1326896E-05  0.0000000E+00 -0.8612170E-01
  0.3061225E+00  0.0000000E+00  0.2040816E-01  0.1472369E-05  0.0000000E+00 -0.8611852E-01
  0.3469388E+00  0.0000000E+00  0.2040816E-01  0.1594127E-05  0.0000000E+00 -0.8611503E-01
  0.3877551E+00  0.0000000E+00  0.2040816E-01  0.1690105E-05  0.0000000E+00 -0.8611130E-01
  0.4285714E+00  0.0000000E+00  0.2040816E-01  0.1758523E-05  0.0000000E+00 -0.8610737E-01
  0.4693878E+00  0.0000000E+00  0.2040816E-01  0.1797969E-05  0.0000000E+00 -0.8610333E-01
  0.5102041E+00  0.0000000E+00  0.2040816E-01  0.1807496E-05  0.0000000E+00 -0.8609923E-01
  0.5510204E+00  0.0000000E+00  0.2040816E-01  0.1786654E-05  0.0000000E+00 -0.8609514E-01
  0.5918368E+00  0.0000000E+00  0.2040816E-01  0.1735498E-05  0.0000000E+00 -0.8609113E-01
  0.6326531E+00  0.0000000E+00  0.2040816E-01  0.1654588E-05  0.0000000E+00 -0.8608728E-01
  0.6734694E+00  0.0000000E+00  0.2040816E-01  0.1544997E-05  0.0000000E+00 -0.8608364E-01
  0.7142857E+00  0.0000000E+00  0.2040816E-01  0.1408325E-05  0.0000000E+00 -0.8608028E-01
  0.7551020E+00  0.0000000E+00  0.2040816E-01  0.1246681E-05  0.0000000E+00 -0.8607726E-01
  0.7959183E+00  0.0000000E+00  0.2040816E-01  0.1062667E-05  0.0000000E+00 -0.8607464E-01
  0.8367347E+00  0.0000000E+00  0.2040816E-01  0.8593343E-06  0.0000000E+00 -0.8607245E-01
  0.8775510E+00  0.0000000E+00  0.2040816E-01  0.6401334E-06  0.0000000E+00 -0.8607075E-01
  0.9183673E+00  0.0000000E+00  0.2040816E-01  0.4088566E-06  0.0000000E+00 -0.8606955E-01
  0.9591837E+00  0.0000000E+00  0.2040816E-01  0.1695737E-06  0.0000000E+00 -0.8606889E-01
  0.1000000E+01  0.0000000E+00  0.2040816E-01 -0.7361161E-07  0.0000000E+00 -0.8606879E-01
  0.1040816E+01  0.0000000E+00  0.2040816E-01 -0.3160086E-06  0.0000000E+00 -0.8606923E-01
  0.1081633E+01  0.0000000E+00  0.2040816E-01 -0.5538531E-06  0.0000000E+00 -0.8607022E-01
  0.1122449E+01  0.0000000E+00  0.2040816E-01 -0.7830256E-06  0.0000000E+00 -0.8607174E-01
  0.1163265E+01  0.0000000E+00  0.2040816E-01 -0.9988994E-06  0.0000000E+00 -0.8607376E-01
  0.1204082E+01  0.0000000E+00  0.2040816E-01 -0.1198046E-05  0.0000000E+00 -0.8607626E-01
  0.1244898E+01  0.0000000E+00  0.2040816E-01 -0.1377335E-05  0.0000000E+00 -0.8607919E-01
  0.1285714E+01  0.0000000E+00  0.2040816E-01 -0.1533507E-05  0.0000000E+00 -0.8608250E-01
  0.1326531E+01  0.0000000E+00  0.2040816E-01 -0.1664059E-05  0.0000000E+00 -0.8608614E-01
  0.1367347E+01  0.0000000E+00  0.2040816E-01 -0.1767071E-05  0.0000000E+00 -0.8609004E-01
  0.1408163E+01  0.0000000E+00  0.2040816E-01 -0.1841032E-05  0.0000000E+00 -0.8609414E-01
  0.1448980E+01  0.0000000E+00  0.2040816E-01 -0.1884912E-05  0.0000000E+00 -0.8609838E-01
  0.1489796E+01  0.0000000E+00  0.2040816E-01 -0.1898229E-05  0.0000000E+00 -0.8610268E-01
  0.1530612E+01  0.0000000E+00  0.2040816E-01 -0.1881044E-05  0.0000000E+00 -0.8610698E-01
  0.1571429E+01  0.0000000E+00  0.2040816E-01 -0.1833909E-05  0.0000000E+00 -0.8611121E-01
  0.1612245E+01  0.0000000E+00  0.2040816E-01 -0.1757829E-05  0.0000000E+00 -0.8611529E-01
  0.1653061E+01  0.0000000E+00  0.2040816E-01 -0.1654227E-05  0.0000000E+00 -0.8611917E-01
  0.1693878E+01  0.0000000E+00  0.2040816E-01 -0.1524918E-05  0.0000000E+00 -0.8612279E-01
  0.1734694E+01  0.0000000E+00  0.2040816E-01 -0.1372079E-05  0.0000000E+00 -0.8612608E-01
  0.1775510E+01  0.0000000E+00  0.2040816E-01 -0.1198204E-05  0.0000000E+00 -0.8612901E-01
  0.1816326E+01  0.0000000E+00  0.2040816E-01 -0.1006066E-05  0.0000000E+00 -0.8613151E-01
  0.1857143E+01  0.0000000E+00  0.2040816E-01 -0.7986688E-06  0.0000000E+00 -0.8613357E-01
  0.1897959E+01  0.0000000E+00  0.2040816E-01 -0.5792135E-06  0.0000000E+00 -0.8613513E-01
  0.1938776E+01  0.0000000E+00  0.2040816E-01 -0.3510727E-06  0.0000000E+00 -0.8613619E-01
  0.1989796E+01  0.0000000E+00  0.2040816E-01 -0.1177797E-06  0.0000000E+00 -0.8613672E-01
  0.2040816E-01  0.0000000E+00  0.6122449E-01  0.3121438E-06  0.0000000E+00 -0.8613246E-01
  0.6122449E-01  0.0000000E+00  0.6122449E-01  0.9327918E-06  0.0000000E+00 -0.8613193E-01
  0.1020408E+00  0.0000000E+00  0.6122449E-01  0.1540044E-05  0.0000000E+00 -0.8613089E-01
  0.1428571E+00  0.0000000E+00  0.6122449E-01  0.2123532E-05  0.0000000E+00 -0.8612935E-01
  0.1836735E+00  0.0000000E+00  0.6122449E-01  0.2672979E-05  0.0000000E+00 -0.8612733E-01
  0.2244898E+00  0.0000000E+00  0.6122449E-01  0.3180085E-05  0.0000000E+00 -0.8612487E-01
  0.2653061E+00  0.0000000E+00  0.6122449E-01  0.3637115E-05  0.0000000E+00 -0.8612200E-01
  0.3061225E+00  0.0000000E+00  0.6122449E-01  0.4036016E-05  0.0000000E+00 -0.8611878E-01
  0.3469388E+00  0.0000000E+00  0.6122449E-01  0.4370004E-05  0.0000000E+00 -0.8611524E-01
  0.3877551E+00  0.0000000E+00  0.6122449E-01  0.4633348E-05  0.0000000E+00 -0.8611145E-01
  0.4285714E+00  0.0000000E+00  0.6122449E-01  0.4821152E-05  0.0000000E+00 -0.8610747E-01
  0.4693878E+00  0.0000000E+00  0.6122449E-01  0.4929551E-05  0.0000000E+00 -0.8610337E-01
  0.5102041E+00  0.0000000E+00  0.6122449E-01  0.4955945E-05  0.0000000E+00 -0.8609921E-01
  0.5510204E+00  0.0000000E+00  0.6122449E-01  0.4899085E-05  0.0000000E+00 -0.8609506E-01
  0.5918368E+00  0.0000000E+00  0.6122449E-01  0.4759094E-05  0.0000000E+00 -0.8609099E-01
  0.6326531E+00  0.0000000E+00  0.6122449E-01  0.4537486E-05  0.0000000E+00 -0.8608708E-01
  0.6734694E+00  0.0000000E+00  0.6122449E-01  0.4237197E-05  0.0000000E+00 -0.8608338E-01
  0.7142857E+00  0.0000000E+00  0.6122449E-01  0.3862598E-05  0.0000000E+00 -0.8607997E-01
  0.7551020E+00  0.0000000E+00  0.6122449E-01  0.3419472E-05  0.0000000E+00 -0.8607691E-01
  0.7959183E+00  0.0000000E+00  0.6122449E-01  0.2914947E-05  0.0000000E+00 -0.8607424E-01
  0.8367347E+00  0.0000000E+00  0.6122449E-01  0.2357392E-05  0.0000000E+00 -0.8607202E-01
  0.8775510E+00  0.0000000E+00  0.6122449E-01  0.1756272E-05  0.0000000E+00 -0.8607028E-01
  0.9183673E+00  0.0000000E+00  0.6122449E-01  0.1121987E-05  0.0000000E+00 -0.8606907E-01
  0.9591837E+00  0.0000000E+00  0.6122449E-01  0.4658355E-06  0.0000000E+00 -0.8606840E-01
  0.1000000E+01  0.0000000E+00  0.6122449E-01 -0.2010747E-06  0.0000000E+00 -0.8606829E-01
  0.1040816E+01  0.0000000E+00  0.6122449E-01 -0.8661077E-06  0.0000000E+00 -0.8606874E-01
  0.1081633E+01  0.0000000E+00  0.6122449E-01 -0.1518331E-05  0.0000000E+00 -0.8606974E-01
  0.1122449E+01  0.0000000E+00  0.6122449E-01 -0.2146634E-05  0.0000000E+00 -0.8607128E-01
  0.1163265E+01  0.0000000E+00  0.6122449E-01 -0.2738728E-05  0.0000000E+00 -0.8607334E-01
  0.1204082E+01  0.0000000E+00  0.6122449E-01 -0.3284845E-05  0.0000000E+00 -0.8607587E-01
  0.1244898E+01  0.0000000E+00  0.6122449E-01 -0.3776325E-05  0.0000000E+00 -0.8607885E-01
  0.1285714E+01  0.0000000E+00  0.6122449E-01 -0.4204429E-05  0.0000000E+00 -0.8608221E-01
  0.1326531E+01  0.0000000E+00  0.6122449E-01 -0.4562286E-05  0.0000000E+00 -0.8608589E-01
  0.1367347E+01  0.0000000E+00  0.6122449E-01 -0.4844567E-05  0.0000000E+00 -0.8608985E-01
  0.1408163E+01  0.0000000E+00  0.6122449E-01 -0.5047136E-05  0.0000000E+00 -0.8609402E-01
  0.1448980E+01  0.0000000E+00  0.6122449E-01 -0.5167205E-05  0.0000000E+00 -0.8609831E-01
  0.1489796E+01  0.0000000E+00  0.6122449E-01 -0.5203484E-05  0.0000000E+00 -0.8610268E-01
  0.1530612E+01  0.0000000E+00  0.6122449E-01 -0.5156151E-05  0.0000000E+00 -0.8610704E-01
  0.1571429E+01  0.0000000E+00  0.6122449E-01 -0.5026729E-05  0.0000000E+00 -0.8611132E-01
  0.1612245E+01  0.0000000E+00  0.6122449E-01 -0.4817982E-05  0.0000000E+00 -0.8611546E-01
  0.1653061E+01  0.0000000E+00  0.6122449E-01 -0.4533824E-05  0.0000000E+00 -0.8611940E-01
  0.1693878E+01  0.0000000E+00  0.6122449E-01 -0.4179248E-05  0.0000000E+00 -0.8612306E-01
  0.1734694E+01  0.0000000E+00  0.6122449E-01 -0.3760226E-05  0.0000000E+00 -0.8612640E-01
  0.1775510E+01  0.0000000E+00  0.6122449E-01 -0.3283601E-05  0.0000000E+00 -0.8612936E-01
  0.1816326E+01  0.0000000E+00  0.6122449E-01 -0.2756968E-05  0.0000000E+00 -0.8613190E-01
  0.1857143E+01  0.0000000E+00  0.6122449E-01 -0.2188555E-05  0.0000000E+00 -0.8613398E-01
  0.1897959E+01  0.0000000E+00  0.6122449E-01 -0.1587119E-05  0.0000000E+00 -0.8613557E-01
  0.1938776E+01  0.0000000E+00  0.6122449E-01 -0.9618887E-06  0.0000000E+00 -0.8613664E-01
  0.1989796E+01  0.0000000E+00  0.6122449E-01 -0.3226380E-06  0.0000000E+00 -0.8613718E-01
  0.2040816E-01  0.0000000E+00  0.1020408E+00  0.4689079E-06  0.0000000E+00 -0.8613323E-01
  0.6122449E-01  0.0000000E+00  0.1020408E+00  0.1401056E-05  0.0000000E+00 -0.8613269E-01
  0.1020408E+00  0.0000000E+00  0.1020408E+00  0.2312687E-05  0.0000000E+00 -0.8613162E-01
  0.1428571E+00  0.0000000E+00  0.1020408E+00  0.3188606E-05  0.0000000E+00 -0.8613005E-01
  0.1836735E+00  0.0000000E+00  0.1020408E+00  0.4013920E-05  0.0000000E+00 -0.8612798E-01
  0.2244898E+00  0.0000000E+00  0.1020408E+00  0.4775775E-05  0.0000000E+00 -0.8612546E-01
  0.2653061E+00  0.0000000E+00  0.1020408E+00  0.5462414E-05  0.0000000E+00 -0.8612252E-01
  0.3061225E+00  0.0000000E+00  0.1020408E+00  0.6061986E-05  0.0000000E+00 -0.8611922E-01
  0.3469388E+00  0.0000000E+00  0.1020408E+00  0.6564270E-05  0.0000000E+00 -0.8611559E-01
  0.3877551E+00  0.0000000E+00  0.1020408E+00  0.6960546E-05  0.0000000E+00 -0.8611171E-01
  0.4285714E+00  0.0000000E+00  0.1020408E+00  0.7243417E-05  0.0000000E+00 -0.8610763E-01
  0.4693878E+00  0.0000000E+00  0.1020408E+00  0.7407071E-05  0.0000000E+00 -0.8610343E-01
  0.5102041E+00  0.0000000E+00  0.1020408E+00  0.7447569E-05  0.0000000E+00 -0.8609916E-01
  0.5510204E+00  0.0000000E+00  0.1020408E+00  0.7362981E-05  0.0000000E+00 -0.8609491E-01
  0.5918368E+00  0.0000000E+00  0.1020408E+00  0.7153427E-05  0.0000000E+00 -0.8609074E-01
  0.6326531E+00  0.0000000E+00  0.1020408E+00  0.6821130E-05  0.0000000E+00 -0.8608672E-01
  0.6734694E+00  0.0000000E+00  0.1020408E+00  0.6370462E-05  0.0000000E+00 -0.8608293E-01
  0.7142857E+00  0.0000000E+00  0.1020408E+00  0.5807963E-05  0.0000000E+00 -0.8607943E-01
  0.7551020E+00  0.0000000E+00  0.1020408E+00  0.5142306E-05  0.0000000E+00 -0.8607628E-01
  0.7959183E+00  0.0000000E+00  0.1020408E+00  0.4384197E-05  0.0000000E+00 -0.8607354E-01
  0.8367347E+00  0.0000000E+00  0.1020408E+00  0.3546218E-05  0.0000000E+00 -0.8607125E-01
  0.8775510E+00  0.0000000E+00  0.1020408E+00  0.2642612E-05  0.0000000E+00 -0.8606947E-01
  0.9183673E+00  0.0000000E+00  0.1020408E+00  0.1689028E-05  0.0000000E+00 -0.8606823E-01
  0.9591837E+00  0.0000000E+00  0.1020408E+00  0.7025522E-06  0.0000000E+00 -0.8606753E-01
  0.1000000E+01  0.0000000E+00  0.1020408E+00 -0.3000413E-06  0.0000000E+00 -0.8606742E-01
  0.1040816E+01  0.0000000E+00  0.1020408E+00 -0.1300239E-05  0.0000000E+00 -0.8606787E-01
  0.1081633E+01  0.0000000E+00  0.1020408E+00 -0.2280819E-05  0.0000000E+00 -0.8606890E-01
  0.1122449E+01  0.0000000E+00  0.1020408E+00 -0.3225101E-05  0.0000000E+00 -0.8607048E-01
  0.1163265E+01  0.0000000E+00  0.1020408E+00 -0.4115237E-05  0.0000000E+00 -0.8607259E-01
  0.1204082E+01  0.0000000E+00  0.1020408E+00 -0.4936089E-05  0.0000000E+00 -0.8607519E-01
  0.1244898E+01  0.0000000E+00  0.1020408E+00 -0.5674462E-05  0.0000000E+00 -0.8607824E-01
  0.1285714E+01  0.0000000E+00  0.1020408E+00 -0.6317520E-05  0.0000000E+00 -0.8608168E-01
  0.1326531E+01  0.0000000E+00  0.1020408E+00 -0.6854929E-05  0.0000000E+00 -0.8608546E-01
  0.1367347E+01  0.0000000E+00  0.1020408E+00 -0.7278595E-05  0.0000000E+00 -0.8608952E-01
  0.1408163E+01  0.0000000E+00  0.1020408E+00 -0.7582334E-05  0.0000000E+00 -0.8609379E-01
  0.1448980E+01  0.0000000E+00  0.1020408E+00 -0.7762037E-05  0.0000000E+00 -0.8609819E-01
  0.1489796E+01  0.0000000E+00  0.1020408E+00 -0.7815836E-05  0.0000000E+00 -0.8610266E-01
  0.1530612E+01  0.0000000E+00  0.1020408E+00 -0.7744040E-05  0.0000000E+00 -0.8610712E-01
  0.1571429E+01  0.0000000E+00  0.1020408E+00 -0.7548975E-05  0.0000000E+00 -0.8611151E-01
  0.1612245E+01  0.0000000E+00  0.1020408E+00 -0.7234827E-05  0.0000000E+00 -0.8611575E-01
  0.1653061E+01  0.0000000E+00  0.1020408E+00 -0.6807523E-05  0.0000000E+00 -0.8611978E-01
  0.1693878E+01  0.0000000E+00  0.1020408E+00 -0.6274598E-05  0.0000000E+00 -0.8612353E-01
  0.1734694E+01  0.0000000E+00  0.1020408E+00 -0.5645051E-05  0.0000000E+00 -0.8612695E-01
  0.1775510E+01  0.0000000E+00  0.1020408E+00 -0.4929170E-05  0.0000000E+00 -0.8612998E-01
  0.1816326E+01  0.0000000E+00  0.1020408E+00 -0.4138354E-05  0.0000000E+00 -0.8613258E-01
  0.1857143E+01  0.0000000E+00  0.1020408E+00 -0.3284940E-05  0.0000000E+00 -0.8613470E-01
  0.1897959E+01  0.0000000E+00  0.1020408E+00 -0.2382050E-05  0.0000000E+00 -0.8613633E-01
  0.1938776E+01  0.0000000E+00  0.1020408E+00 -0.1443503E-05  0.0000000E+00 -0.8613742E-01
  0.1989796E+01  0.0000000E+00  0.1020408E+00 -0.4840384E-06  0.0000000E+00 -0.8613797E-01
  0.2040816E-01  0.0000000E+00  0.1428571E+00  0.6061675E-06  0.0000000E+00 -0.8613427E-01
  0.6122449E-01  0.0000000E+00  0.1428571E+00  0.1811001E-05  0.0000000E+00 -0.8613371E-01
  0.1020408E+00  0.0000000E+00  0.1428571E+00  0.2989156E-05  0.0000000E+00 -0.8613261E-01
  0.1428571E+00  0.0000000E+00  0.1428571E+00  0.4121166E-05  0.0000000E+00 -0.8613099E-01
  0.1836735E+00  0.0000000E+00  0.1428571E+00  0.5188215E-05  0.0000000E+00 -0.8612886E-01
  0.2244898E+00  0.0000000E+00  0.1428571E+00  0.6173550E-05  0.0000000E+00 -0.8612625E-01
  0.2653061E+00  0.0000000E+00  0.1428571E+00  0.7061840E-05  0.0000000E+00 -0.8612322E-01
  0.3061225E+00  0.0000000E+00  0.1428571E+00  0.7837908E-05  0.0000000E+00 -0.8611981E-01
  0.3469388E+00  0.0000000E+00  0.1428571E+00  0.8488504E-05  0.0000000E+00 -0.8611607E-01
  0.3877551E+00  0.0000000E+00  0.1428571E+00  0.9002248E-05  0.0000000E+00 -0.8611206E-01
  0.4285714E+00  0.0000000E+00  0.1428571E+00  0.9369509E-05  0.0000000E+00 -0.8610785E-01
  0.4693878E+00  0.0000000E+00  0.1428571E+00  0.9582717E-05  0.0000000E+00 -0.8610350E-01
  0.5102041E+00  0.0000000E+00  0.1428571E+00  0.9636703E-05  0.0000000E+00 -0.8609909E-01
  0.5510204E+00  0.0000000E+00  0.1428571E+00  0.9528863E-05  0.0000000E+00 -0.8609469E-01
  0.5918368E+00  0.0000000E+00  0.1428571E+00  0.9259248E-05  0.0000000E+00 -0.8609038E-01
  0.6326531E+00  0.0000000E+00  0.1428571E+00  0.8830640E-05  0.0000000E+00 -0.8608622E-01
  0.6734694E+00  0.0000000E+00  0.1428571E+00  0.8248620E-05  0.0000000E+00 -0.8608230E-01
  0.7142857E+00  0.0000000E+00  0.1428571E+00  0.7521597E-05  0.0000000E+00 -0.8607867E-01
  0.7551020E+00  0.0000000E+00  0.1428571E+00  0.6660759E-05  0.0000000E+00 -0.8607541E-01
  0.7959183E+00  0.0000000E+00  0.1428571E+00  0.5679945E-05  0.0000000E+00 -0.8607257E-01
  0.8367347E+00  0.0000000E+00  0.1428571E+00  0.4595437E-05  0.0000000E+00 -0.8607020E-01
  0.8775510E+00  0.0000000E+00  0.1428571E+00  0.3425705E-05  0.0000000E+00 -0.8606835E-01
  0.9183673E+00  0.0000000E+00  0.1428571E+00  0.2191112E-05  0.0000000E+00 -0.8606706E-01
  0.9591837E+00  0.0000000E+00  0.1428571E+00  0.9136710E-06  0.0000000E+00 -0.8606634E-01
  0.1000000E+01  0.0000000E+00  0.1428571E+00 -0.3845213E-06  0.0000000E+00 -0.8606621E-01
  0.1040816E+01  0.0000000E+00  0.1428571E+00 -0.1679829E-05  0.0000000E+00 -0.8606668E-01
  0.1081633E+01  0.0000000E+00  0.1428571E+00 -0.2949617E-05  0.0000000E+00 -0.8606774E-01
  0.1122449E+01  0.0000000E+00  0.1428571E+00 -0.4172001E-05  0.0000000E+00 -0.8606938E-01
  0.1163265E+01  0.0000000E+00  0.1428571E+00 -0.5324276E-05  0.0000000E+00 -0.8607156E-01
  0.1204082E+01  0.0000000E+00  0.1428571E+00 -0.6386648E-05  0.0000000E+00 -0.8607424E-01
  0.1244898E+01  0.0000000E+00  0.1428571E+00 -0.7341842E-05  0.0000000E+00 -0.8607739E-01
  0.1285714E+01  0.0000000E+00  0.1428571E+00 -0.8173430E-05  0.0000000E+00 -0.8608095E-01
  0.1326531E+01  0.0000000E+00  0.1428571E+00 -0.8868048E-05  0.0000000E+00 -0.8608486E-01
  0.1367347E+01  0.0000000E+00  0.1428571E+00 -0.9415203E-05  0.0000000E+00 -0.8608905E-01
  0.1408163E+01  0.0000000E+00  0.1428571E+00 -0.9806957E-05  0.0000000E+00 -0.8609346E-01
  0.1448980E+01  0.0000000E+00  0.1428571E+00 -0.1003811E-04  0.0000000E+00 -0.8609801E-01
  0.1489796E+01  0.0000000E+00  0.1428571E+00 -0.1010635E-04  0.0000000E+00 -0.8610263E-01
  0.1530612E+01  0.0000000E+00  0.1428571E+00 -0.1001216E-04  0.0000000E+00 -0.8610724E-01
  0.1571429E+01  0.0000000E+00  0.1428571E+00 -0.9758628E-05  0.0000000E+00 -0.8611176E-01
  0.1612245E+01  0.0000000E+00  0.1428571E+00 -0.9351263E-05  0.0000000E+00 -0.8611614E-01
  0.1653061E+01  0.0000000E+00  0.1428571E+00 -0.8797803E-05  0.0000000E+00 -0.8612029E-01
  0.1693878E+01  0.0000000E+00  0.1428571E+00 -0.8108061E-05  0.0000000E+00 -0.8612416E-01
  0.1734694E+01  0.0000000E+00  0.1428571E+00 -0.7293722E-05  0.0000000E+00 -0.8612768E-01
  0.1775510E+01  0.0000000E+00  0.1428571E+00 -0.6368112E-05  0.0000000E+00 -0.8613081E-01
  0.1816326E+01  0.0000000E+00  0.1428571E+00 -0.5345962E-05  0.0000000E+00 -0.8613348E-01
  0.1857143E+01  0.0000000E+00  0.1428571E+00 -0.4243182E-05  0.0000000E+00 -0.8613567E-01
  0.1897959E+01  0.0000000E+00  0.1428571E+00 -0.3076679E-05  0.0000000E+00 -0.8613735E-01
  0.1938776E+01  0.0000000E+00  0.1428571E+00 -0.1864299E-05  0.0000000E+00 -0.8613848E-01
  0.1989796E+01  0.0000000E+00  0.1428571E+00 -0.6249765E-06  0.0000000E+00 -0.8613905E-01
  0.2040816E-01  0.0000000E+00  0.1836735E+00  0.7315010E-06  0.0000000E+00 -0.8613554E-01
  0.6122449E-01  0.0000000E+00  0.1836735E+00  0.2185176E-05  0.0000000E+00 -0.8613497E-01
  0.1020408E+00  0.0000000E+00  0.1836735E+00  0.3606634E-05  0.0000000E+00 -0.8613383E-01
  0.1428571E+00  0.0000000E+00  0.1836735E+00  0.4972580E-05  0.0000000E+00 -0.8613214E-01
  0.1836735E+00  0.0000000E+00  0.1836735E+00  0.6260630E-05  0.0000000E+00 -0.8612993E-01
  0.2244898E+00  0.0000000E+00  0.1836735E+00  0.7450546E-05  0.0000000E+00 -0.8612723E-01
  0.2653061E+00  0.0000000E+00  0.1836735E+00  0.8523733E-05  0.0000000E+00 -0.8612408E-01
  0.3061225E+00  0.0000000E+00  0.1836735E+00  0.9461955E-05  0.0000000E+00 -0.8612054E-01
  0.3469388E+00  0.0000000E+00  0.1836735E+00  0.1024917E-04  0.0000000E+00 -0.8611665E-01
  0.3877551E+00  0.0000000E+00  0.1836735E+00  0.1087154E-04  0.0000000E+00 -0.8611249E-01
  0.4285714E+00  0.0000000E+00  0.1836735E+00  0.1131732E-04  0.0000000E+00 -0.8610811E-01
  0.4693878E+00  0.0000000E+00  0.1836735E+00  0.1157727E-04  0.0000000E+00 -0.8610359E-01
  0.5102041E+00  0.0000000E+00  0.1836735E+00  0.1164501E-04  0.0000000E+00 -0.8609900E-01
  0.5510204E+00  0.0000000E+00  0.1836735E+00  0.1151724E-04  0.0000000E+00 -0.8609442E-01
  0.5918368E+00  0.0000000E+00  0.1836735E+00  0.1119386E-04  0.0000000E+00 -0.8608993E-01
  0.6326531E+00  0.0000000E+00  0.1836735E+00  0.1067808E-04  0.0000000E+00 -0.8608560E-01
  0.6734694E+00  0.0000000E+00  0.1836735E+00  0.9976531E-05  0.0000000E+00 -0.8608151E-01
  0.7142857E+00  0.0000000E+00  0.1836735E+00  0.9099280E-05  0.0000000E+00 -0.8607772E-01
  0.7551020E+00  0.0000000E+00  0.1836735E+00  0.8059793E-05  0.0000000E+00 -0.8607432E-01
  0.7959183E+00  0.0000000E+00  0.1836735E+00  0.6874775E-05  0.0000000E+00 -0.8607136E-01
  0.8367347E+00  0.0000000E+00  0.1836735E+00  0.5563908E-05  0.0000000E+00 -0.8606889E-01
  0.8775510E+00  0.0000000E+00  0.1836735E+00  0.4149528E-05  0.0000000E+00 -0.8606695E-01
  0.9183673E+00  0.0000000E+00  0.1836735E+00  0.2656479E-05  0.0000000E+00 -0.8606560E-01
  0.9591837E+00  0.0000000E+00  0.1836735E+00  0.1111263E-05  0.0000000E+00 -0.8606485E-01
  0.1000000E+01  0.0000000E+00  0.1836735E+00 -0.4590956E-06  0.0000000E+00 -0.8606471E-01
  0.1040816E+01  0.0000000E+00  0.1836735E+00 -0.2026024E-05  0.0000000E+00 -0.8606519E-01
  0.1081633E+01  0.0000000E+00  0.1836735E+00 -0.3561958E-05  0.0000000E+00 -0.8606630E-01
  0.1122449E+01  0.0000000E+00  0.1836735E+00 -0.5040152E-05  0.0000000E+00 -0.8606799E-01
  0.1163265E+01  0.0000000E+00  0.1836735E+00 -0.6433341E-05  0.0000000E+00 -0.8607026E-01
  0.1204082E+01  0.0000000E+00  0.1836735E+00 -0.7717460E-05  0.0000000E+00 -0.8607306E-01
  0.1244898E+01  0.0000000E+00  0.1836735E+00 -0.8871457E-05  0.0000000E+00 -0.8607634E-01
  0.1285714E+01  0.0000000E+00  0.1836735E+00 -0.9875589E-05  0.0000000E+00 -0.8608004E-01
  0.1326531E+01  0.0000000E+00  0.1836735E+00 -0.1071373E-04  0.0000000E+00 -0.8608411E-01
  0.1367347E+01  0.0000000E+00  0.1836735E+00 -0.1137324E-04  0.0000000E+00 -0.8608847E-01
  0.1408163E+01  0.0000000E+00  0.1836735E+00 -0.1184463E-04  0.0000000E+00 -0.8609305E-01
  0.1448980E+01  0.0000000E+00  0.1836735E+00 -0.1212178E-04  0.0000000E+00 -0.8609778E-01
  0.1489796E+01  0.0000000E+00  0.1836735E+00 -0.1220202E-04  0.0000000E+00 -0.8610258E-01
  0.1530612E+01  0.0000000E+00  0.1836735E+00 -0.1208612E-04  0.0000000E+00 -0.8610737E-01
  0.1571429E+01  0.0000000E+00  0.1836735E+00 -0.1177793E-04  0.0000000E+00 -0.8611207E-01
  0.1612245E+01  0.0000000E+00  0.1836735E+00 -0.1128424E-04  0.0000000E+00 -0.8611661E-01
  0.1653061E+01  0.0000000E+00  0.1836735E+00 -0.1061454E-04  0.0000000E+00 -0.8612092E-01
  0.1693878E+01  0.0000000E+00  0.1836735E+00 -0.9780757E-05  0.0000000E+00 -0.8612493E-01
  0.1734694E+01  0.0000000E+00  0.1836735E+00 -0.8797089E-05  0.0000000E+00 -0.8612859E-01
  0.1775510E+01  0.0000000E+00  0.1836735E+00 -0.7679660E-05  0.0000000E+00 -0.8613183E-01
  0.1816326E+01  0.0000000E+00  0.1836735E+00 -0.6446245E-05  0.0000000E+00 -0.8613460E-01
  0.1857143E+01  0.0000000E+00  0.1836735E+00 -0.5115996E-05  0.0000000E+00 -0.8613687E-01
  0.1897959E+01  0.0000000E+00  0.1836735E+00 -0.3709221E-05  0.0000000E+00 -0.8613861E-01
  0.1938776E+01  0.0000000E+00  0.1836735E+00 -0.2247433E-05  0.0000000E+00 -0.8613978E-01
  0.1989796E+01  0.0000000E+00  0.1836735E+00 -0.7532751E-06  0.0000000E+00 -0.8614036E-01
  0.2040816E-01  0.0000000E+00  0.2244898E+00  0.8493275E-06  0.0000000E+00 -0.8613705E-01
  0.6122449E-01  0.0000000E+00  0.2244898E+00  0.2536904E-05  0.0000000E+00 -0.8613645E-01
  0.1020408E+00  0.0000000E+00  0.2244898E+00  0.4187130E-05  0.0000000E+00 -0.8613526E-01
  0.1428571E+00  0.0000000E+00  0.2244898E+00  0.5773226E-05  0.0000000E+00 -0.8613350E-01
  0.1836735E+00  0.0000000E+00  0.2244898E+00  0.7269491E-05  0.0000000E+00 -0.8613119E-01
  0.2244898E+00  0.0000000E+00  0.2244898E+00  0.8652455E-05  0.0000000E+00 -0.8612838E-01
  0.2653061E+00  0.0000000E+00  0.2244898E+00  0.9900458E-05  0.0000000E+00 -0.8612509E-01
  0.3061225E+00  0.0000000E+00  0.2244898E+00  0.1099238E-04  0.0000000E+00 -0.8612139E-01
  0.3469388E+00  0.0000000E+00  0.2244898E+00  0.1190954E-04  0.0000000E+00 -0.8611734E-01
  0.3877551E+00  0.0000000E+00  0.2244898E+00  0.1263569E-04  0.0000000E+00 -0.8611298E-01
  0.4285714E+00  0.0000000E+00  0.2244898E+00  0.1315708E-04  0.0000000E+00 -0.8610841E-01
  0.4693878E+00  0.0000000E+00  0.2244898E+00  0.1346279E-04  0.0000000E+00 -0.8610368E-01
  0.5102041E+00  0.0000000E+00  0.2244898E+00  0.1354519E-04  0.0000000E+00 -0.8609888E-01
  0.5510204E+00  0.0000000E+00  0.2244898E+00  0.1340023E-04  0.0000000E+00 -0.8609409E-01
  0.5918368E+00  0.0000000E+00  0.2244898E+00  0.1302756E-04  0.0000000E+00 -0.8608938E-01
  0.6326531E+00  0.0000000E+00  0.2244898E+00  0.1243071E-04  0.0000000E+00 -0.8608485E-01
  0.6734694E+00  0.0000000E+00  0.2244898E+00  0.1161721E-04  0.0000000E+00 -0.8608056E-01
  0.7142857E+00  0.0000000E+00  0.2244898E+00  0.1059865E-04  0.0000000E+00 -0.8607660E-01
  0.7551020E+00  0.0000000E+00  0.2244898E+00  0.9390603E-05  0.0000000E+00 -0.8607303E-01
  0.7959183E+00  0.0000000E+00  0.2244898E+00  0.8012472E-05  0.0000000E+00 -0.8606991E-01
  0.8367347E+00  0.0000000E+00  0.2244898E+00  0.6487173E-05  0.0000000E+00 -0.8606732E-01
  0.8775510E+00  0.0000000E+00  0.2244898E+00  0.4840718E-05  0.0000000E+00 -0.8606529E-01
  0.9183673E+00  0.0000000E+00  0.2244898E+00  0.3102239E-05  0.0000000E+00 -0.8606386E-01
  0.9591837E+00  0.0000000E+00  0.2244898E+00  0.1302627E-05  0.0000000E+00 -0.8606307E-01
  0.1000000E+01  0.0000000E+00  0.2244898E+00 -0.5264227E-06  0.0000000E+00 -0.8606292E-01
  0.1040816E+01  0.0000000E+00  0.2244898E+00 -0.2351501E-05  0.0000000E+00 -0.8606342E-01
  0.1081633E+01  0.0000000E+00  0.2244898E+00 -0.4140276E-05  0.0000000E+00 -0.8606457E-01
  0.1122449E+01  0.0000000E+00  0.2244898E+00 -0.5861351E-05  0.0000000E+00 -0.8606635E-01
  0.1163265E+01  0.0000000E+00  0.2244898E+00 -0.7483048E-05  0.0000000E+00 -0.8606872E-01
  0.1204082E+01  0.0000000E+00  0.2244898E+00 -0.8977217E-05  0.0000000E+00 -0.8607165E-01
  0.1244898E+01  0.0000000E+00  0.2244898E+00 -0.1031919E-04  0.0000000E+00 -0.8607508E-01
  0.1285714E+01  0.0000000E+00  0.2244898E+00 -0.1148609E-04  0.0000000E+00 -0.8607896E-01
  0.1326531E+01  0.0000000E+00  0.2244898E+00 -0.1245921E-04  0.0000000E+00 -0.8608321E-01
  0.1367347E+01  0.0000000E+00  0.2244898E+00 -0.1322391E-04  0.0000000E+00 -0.8608777E-01
  0.1408163E+01  0.0000000E+00  0.2244898E+00 -0.1376931E-04  0.0000000E+00 -0.8609256E-01
  0.1448980E+01  0.0000000E+00  0.2244898E+00 -0.1408850E-04  0.0000000E+00 -0.8609751E-01
  0.1489796E+01  0.0000000E+00  0.2244898E+00 -0.1417862E-04  0.0000000E+00 -0.8610252E-01
  0.1530612E+01  0.0000000E+00  0.2244898E+00 -0.1404074E-04  0.0000000E+00 -0.8610752E-01
  0.1571429E+01  0.0000000E+00  0.2244898E+00 -0.1367958E-04  0.0000000E+00 -0.8611243E-01
  0.1612245E+01  0.0000000E+00  0.2244898E+00 -0.1310324E-04  0.0000000E+00 -0.8611716E-01
  0.1653061E+01  0.0000000E+00  0.2244898E+00 -0.1232289E-04  0.0000000E+00 -0.8612166E-01
  0.1693878E+01  0.0000000E+00  0.2244898E+00 -0.1135260E-04  0.0000000E+00 -0.8612584E-01
  0.1734694E+01  0.0000000E+00  0.2244898E+00 -0.1020892E-04  0.0000000E+00 -0.8612965E-01
  0.1775510E+01  0.0000000E+00  0.2244898E+00 -0.8910658E-05  0.0000000E+00 -0.8613302E-01
  0.1816326E+01  0.0000000E+00  0.2244898E+00 -0.7478458E-05  0.0000000E+00 -0.8613591E-01
  0.1857143E+01  0.0000000E+00  0.2244898E+00 -0.5934497E-05  0.0000000E+00 -0.8613828E-01
  0.1897959E+01  0.0000000E+00  0.2244898E+00 -0.4302227E-05  0.0000000E+00 -0.8614008E-01
  0.1938776E+01  0.0000000E+00  0.2244898E+00 -0.2606552E-05  0.0000000E+00 -0.8614130E-01
  0.1989796E+01  0.0000000E+00  0.2244898E+00 -0.8735191E-06  0.0000000E+00 -0.8614191E-01
  0.2040816E-01  0.0000000E+00  0.2653061E+00  0.9626642E-06  0.0000000E+00 -0.8613876E-01
  0.6122449E-01  0.0000000E+00  0.2653061E+00  0.2875256E-05  0.0000000E+00 -0.8613813E-01
  0.1020408E+00  0.0000000E+00  0.2653061E+00  0.4745651E-05  0.0000000E+00 -0.8613689E-01
  0.1428571E+00  0.0000000E+00  0.2653061E+00  0.6543833E-05  0.0000000E+00 -0.8613504E-01
  0.1836735E+00  0.0000000E+00  0.2653061E+00  0.8240965E-05  0.0000000E+00 -0.8613263E-01
  0.2244898E+00  0.0000000E+00  0.2653061E+00  0.9810506E-05  0.0000000E+00 -0.8612968E-01
  0.2653061E+00  0.0000000E+00  0.2653061E+00  0.1122787E-04  0.0000000E+00 -0.8612624E-01
  0.3061225E+00  0.0000000E+00  0.2653061E+00  0.1246914E-04  0.0000000E+00 -0.8612237E-01
  0.3469388E+00  0.0000000E+00  0.2653061E+00  0.1351305E-04  0.0000000E+00 -0.8611811E-01
  0.3877551E+00  0.0000000E+00  0.2653061E+00  0.1434102E-04  0.0000000E+00 -0.8611355E-01
  0.4285714E+00  0.0000000E+00  0.2653061E+00  0.1493723E-04  0.0000000E+00 -0.8610875E-01
  0.4693878E+00  0.0000000E+00  0.2653061E+00  0.1528906E-04  0.0000000E+00 -0.8610379E-01
  0.5102041E+00  0.0000000E+00  0.2653061E+00  0.1538758E-04  0.0000000E+00 -0.8609874E-01
  0.5510204E+00  0.0000000E+00  0.2653061E+00  0.1522786E-04  0.0000000E+00 -0.8609371E-01
  0.5918368E+00  0.0000000E+00  0.2653061E+00  0.1480922E-04  0.0000000E+00 -0.8608876E-01
  0.6326531E+00  0.0000000E+00  0.2653061E+00  0.1413539E-04  0.0000000E+00 -0.8608399E-01
  0.6734694E+00  0.0000000E+00  0.2653061E+00  0.1321467E-04  0.0000000E+00 -0.8607947E-01
  0.7142857E+00  0.0000000E+00  0.2653061E+00  0.1206004E-04  0.0000000E+00 -0.8607529E-01
  0.7551020E+00  0.0000000E+00  0.2653061E+00  0.1068908E-04  0.0000000E+00 -0.8607153E-01
  0.7959183E+00  0.0000000E+00  0.2653061E+00  0.9123779E-05  0.0000000E+00 -0.8606825E-01
  0.8367347E+00  0.0000000E+00  0.2653061E+00  0.7390211E-05  0.0000000E+00 -0.8606551E-01
  0.8775510E+00  0.0000000E+00  0.2653061E+00  0.5518014E-05  0.0000000E+00 -0.8606336E-01
  0.9183673E+00  0.0000000E+00  0.2653061E+00  0.3540487E-05  0.0000000E+00 -0.8606186E-01
  0.9591837E+00  0.0000000E+00  0.2653061E+00  0.1492930E-05  0.0000000E+00 -0.8606101E-01
  0.1000000E+01  0.0000000E+00  0.2653061E+00 -0.5883493E-06  0.0000000E+00 -0.8606085E-01
  0.1040816E+01  0.0000000E+00  0.2653061E+00 -0.2665129E-05  0.0000000E+00 -0.8606138E-01
  0.1081633E+01  0.0000000E+00  0.2653061E+00 -0.4700312E-05  0.0000000E+00 -0.8606258E-01
  0.1122449E+01  0.0000000E+00  0.2653061E+00 -0.6657911E-05  0.0000000E+00 -0.8606445E-01
  0.1163265E+01  0.0000000E+00  0.2653061E+00 -0.8501869E-05  0.0000000E+00 -0.8606694E-01
  0.1204082E+01  0.0000000E+00  0.2653061E+00 -0.1020001E-04  0.0000000E+00 -0.8607002E-01
  0.1244898E+01  0.0000000E+00  0.2653061E+00 -0.1172414E-04  0.0000000E+00 -0.8607363E-01
  0.1285714E+01  0.0000000E+00  0.2653061E+00 -0.1304830E-04  0.0000000E+00 -0.8607770E-01
  0.1326531E+01  0.0000000E+00  0.2653061E+00 -0.1415134E-04  0.0000000E+00 -0.8608217E-01