title = "dataset feddes"
variables = "x", "y", "z", "vx", "vy", "vz"
zone t = "velocities, solution time =  5.100E+01 days        " i =   49, j =   49, k =    1,  f=point
  0.2040816E-01  0.0000000E+00  0.2040816E-01  0.5636926E-06  0.0000000E+00 -0.8509702E-01
  0.6122449E-01  0.0000000E+00  0.2040816E-01  0.1680978E-05  0.0000000E+00 -0.8509447E-01
  0.1020408E+00  0.0000000E+00  0.2040816E-01  0.2772798E-05  0.0000000E+00 -0.8508941E-01
  0.1428571E+00  0.0000000E+00  0.2040816E-01  0.3817773E-05  0.0000000E+00 -0.8508193E-01
  0.1836735E+00  0.0000000E+00  0.2040816E-01  0.4794444E-05  0.0000000E+00 -0.8507215E-01
  0.2244898E+00  0.0000000E+00  0.2040816E-01  0.5683582E-05  0.0000000E+00 -0.8506025E-01
  0.2653061E+00  0.0000000E+00  0.2040816E-01  0.6473200E-05  0.0000000E+00 -0.8504645E-01
  0.3061225E+00  0.0000000E+00  0.2040816E-01  0.7148374E-05  0.0000000E+00 -0.8503098E-01
  0.3469388E+00  0.0000000E+00  0.2040816E-01  0.7693879E-05  0.0000000E+00 -0.8501413E-01
  0.3877551E+00  0.0000000E+00  0.2040816E-01  0.8097216E-05  0.0000000E+00 -0.8499620E-01
  0.4285714E+00  0.0000000E+00  0.2040816E-01  0.8349045E-05  0.0000000E+00 -0.8497753E-01
  0.4693878E+00  0.0000000E+00  0.2040816E-01  0.8442788E-05  0.0000000E+00 -0.8495846E-01
  0.5102041E+00  0.0000000E+00  0.2040816E-01  0.8374510E-05  0.0000000E+00 -0.8493937E-01
  0.5510204E+00  0.0000000E+00  0.2040816E-01  0.8143125E-05  0.0000000E+00 -0.8492062E-01
  0.5918368E+00  0.0000000E+00  0.2040816E-01  0.7750650E-05  0.0000000E+00 -0.8490258E-01
  0.6326531E+00  0.0000000E+00  0.2040816E-01  0.7202359E-05  0.0000000E+00 -0.8488560E-01
  0.6734694E+00  0.0000000E+00  0.2040816E-01  0.6506780E-05  0.0000000E+00 -0.8487004E-01
  0.7142857E+00  0.0000000E+00  0.2040816E-01  0.5675549E-05  0.0000000E+00 -0.8485621E-01
  0.7551020E+00  0.0000000E+00  0.2040816E-01  0.4723132E-05  0.0000000E+00 -0.8484441E-01
  0.7959183E+00  0.0000000E+00  0.2040816E-01  0.3666429E-05  0.0000000E+00 -0.8483489E-01
  0.8367347E+00  0.0000000E+00  0.2040816E-01  0.2524363E-05  0.0000000E+00 -0.8482786E-01
  0.8775510E+00  0.0000000E+00  0.2040816E-01  0.1317603E-05  0.0000000E+00 -0.8482350E-01
  0.9183673E+00  0.0000000E+00  0.2040816E-01  0.6852958E-07  0.0000000E+00 -0.8482192E-01
  0.9591837E+00  0.0000000E+00  0.2040816E-01 -0.1196786E-05  0.0000000E+00 -0.8482320E-01
  0.1000000E+01  0.0000000E+00  0.2040816E-01 -0.2457290E-05  0.0000000E+00 -0.8482735E-01
  0.1040816E+01  0.0000000E+00  0.2040816E-01 -0.3695459E-05  0.0000000E+00 -0.8483434E-01
  0.1081633E+01  0.0000000E+00  0.2040816E-01 -0.4886191E-05  0.0000000E+00 -0.8484408E-01
  0.1122449E+01  0.0000000E+00  0.2040816E-01 -0.6006002E-05  0.0000000E+00 -0.8485644E-01
  0.1163265E+01  0.0000000E+00  0.2040816E-01 -0.7033966E-05  0.0000000E+00 -0.8487124E-01
  0.1204082E+01  0.0000000E+00  0.2040816E-01 -0.7959114E-05  0.0000000E+00 -0.8488826E-01
  0.1244898E+01  0.0000000E+00  0.2040816E-01 -0.8767332E-05  0.0000000E+00 -0.8490725E-01
  0.1285714E+01  0.0000000E+00  0.2040816E-01 -0.9444604E-05  0.0000000E+00 -0.8492793E-01
  0.1326531E+01  0.0000000E+00  0.2040816E-01 -0.9980552E-05  0.0000000E+00 -0.8494998E-01
  0.1367347E+01  0.0000000E+00  0.2040816E-01 -0.1036858E-04  0.0000000E+00 -0.8497308E-01
  0.1408163E+01  0.0000000E+00  0.2040816E-01 -0.1060494E-04  0.0000000E+00 -0.8499689E-01
  0.1448980E+01  0.0000000E+00  0.2040816E-01 -0.1068810E-04  0.0000000E+00 -0.8502107E-01
  0.1489796E+01  0.0000000E+00  0.2040816E-01 -0.1061870E-04  0.0000000E+00 -0.8504526E-01
  0.1530612E+01  0.0000000E+00  0.2040816E-01 -0.1039954E-04  0.0000000E+00 -0.8506913E-01
  0.1571429E+01  0.0000000E+00  0.2040816E-01 -0.1003551E-04  0.0000000E+00 -0.8509233E-01
  0.1612245E+01  0.0000000E+00  0.2040816E-01 -0.9533446E-05  0.0000000E+00 -0.8511455E-01
  0.1653061E+01  0.0000000E+00  0.2040816E-01 -0.8901843E-05  0.0000000E+00 -0.8513549E-01
  0.1693878E+01  0.0000000E+00  0.2040816E-01 -0.8150748E-05  0.0000000E+00 -0.8515485E-01
  0.1734694E+01  0.0000000E+00  0.2040816E-01 -0.7291538E-05  0.0000000E+00 -0.8517239E-01
  0.1775510E+01  0.0000000E+00  0.2040816E-01 -0.6336650E-05  0.0000000E+00 -0.8518787E-01
  0.1816326E+01  0.0000000E+00  0.2040816E-01 -0.5299370E-05  0.0000000E+00 -0.8520108E-01
  0.1857143E+01  0.0000000E+00  0.2040816E-01 -0.4193692E-05  0.0000000E+00 -0.8521186E-01
  0.1897959E+01  0.0000000E+00  0.2040816E-01 -0.3034158E-05  0.0000000E+00 -0.8522007E-01
  0.1938776E+01  0.0000000E+00  0.2040816E-01 -0.1835734E-05  0.0000000E+00 -0.8522560E-01
  0.1989796E+01  0.0000000E+00  0.2040816E-01 -0.6139617E-06  0.0000000E+00 -0.8522839E-01
  0.2040816E-01  0.0000000E+00  0.6122449E-01  0.1545826E-05  0.0000000E+00 -0.8509926E-01
  0.6122449E-01  0.0000000E+00  0.6122449E-01  0.4611611E-05  0.0000000E+00 -0.8509667E-01
  0.1020408E+00  0.0000000E+00  0.6122449E-01  0.7606153E-05  0.0000000E+00 -0.8509153E-01
  0.1428571E+00  0.0000000E+00  0.6122449E-01  0.1047011E-04  0.0000000E+00 -0.8508393E-01
  0.1836735E+00  0.0000000E+00  0.6122449E-01  0.1314852E-04  0.0000000E+00 -0.8507401E-01
  0.2244898E+00  0.0000000E+00  0.6122449E-01  0.1558942E-04  0.0000000E+00 -0.8506192E-01
  0.2653061E+00  0.0000000E+00  0.6122449E-01  0.1775712E-04  0.0000000E+00 -0.8504790E-01
  0.3061225E+00  0.0000000E+00  0.6122449E-01  0.1961040E-04  0.0000000E+00 -0.8503219E-01
  0.3469388E+00  0.0000000E+00  0.6122449E-01  0.2110821E-04  0.0000000E+00 -0.8501507E-01
  0.3877551E+00  0.0000000E+00  0.6122449E-01  0.2221655E-04  0.0000000E+00 -0.8499684E-01
  0.4285714E+00  0.0000000E+00  0.6122449E-01  0.2290963E-04  0.0000000E+00 -0.8497786E-01
  0.4693878E+00  0.0000000E+00  0.6122449E-01  0.2316912E-04  0.0000000E+00 -0.8495848E-01
  0.5102041E+00  0.0000000E+00  0.6122449E-01  0.2298400E-04  0.0000000E+00 -0.8493906E-01
  0.5510204E+00  0.0000000E+00  0.6122449E-01  0.2235114E-04  0.0000000E+00 -0.8491998E-01
  0.5918368E+00  0.0000000E+00  0.6122449E-01  0.2127602E-04  0.0000000E+00 -0.8490162E-01
  0.6326531E+00  0.0000000E+00  0.6122449E-01  0.1977309E-04  0.0000000E+00 -0.8488435E-01
  0.6734694E+00  0.0000000E+00  0.6122449E-01  0.1786578E-04  0.0000000E+00 -0.8486850E-01
  0.7142857E+00  0.0000000E+00  0.6122449E-01  0.1558605E-04  0.0000000E+00 -0.8485442E-01
  0.7551020E+00  0.0000000E+00  0.6122449E-01  0.1297359E-04  0.0000000E+00 -0.8484239E-01
  0.7959183E+00  0.0000000E+00  0.6122449E-01  0.1007471E-04  0.0000000E+00 -0.8483267E-01
  0.8367347E+00  0.0000000E+00  0.6122449E-01  0.6941321E-05  0.0000000E+00 -0.8482550E-01
  0.8775510E+00  0.0000000E+00  0.6122449E-01  0.3630415E-05  0.0000000E+00 -0.8482103E-01
  0.9183673E+00  0.0000000E+00  0.6122449E-01  0.2052439E-06  0.0000000E+00 -0.8481939E-01
  0.9591837E+00  0.0000000E+00  0.6122449E-01 -0.3266839E-05  0.0000000E+00 -0.8482066E-01
  0.1000000E+01  0.0000000E+00  0.6122449E-01 -0.6726909E-05  0.0000000E+00 -0.8482484E-01
  0.1040816E+01  0.0000000E+00  0.6122449E-01 -0.1012318E-04  0.0000000E+00 -0.8483190E-01
  0.1081633E+01  0.0000000E+00  0.6122449E-01 -0.1338614E-04  0.0000000E+00 -0.8484176E-01
  0.1122449E+01  0.0000000E+00  0.6122449E-01 -0.1645581E-04  0.0000000E+00 -0.8485428E-01
  0.1163265E+01  0.0000000E+00  0.6122449E-01 -0.1927576E-04  0.0000000E+00 -0.8486927E-01
  0.1204082E+01  0.0000000E+00  0.6122449E-01 -0.2181245E-04  0.0000000E+00 -0.8488652E-01
  0.1244898E+01  0.0000000E+00  0.6122449E-01 -0.2402696E-04  0.0000000E+00 -0.8490575E-01
  0.1285714E+01  0.0000000E+00  0.6122449E-01 -0.2588195E-04  0.0000000E+00 -0.8492670E-01
  0.1326531E+01  0.0000000E+00  0.6122449E-01 -0.2734951E-04  0.0000000E+00 -0.8494904E-01
  0.1367347E+01  0.0000000E+00  0.6122449E-01 -0.2841157E-04  0.0000000E+00 -0.8497244E-01
  0.1408163E+01  0.0000000E+00  0.6122449E-01 -0.2905776E-04  0.0000000E+00 -0.8499656E-01
  0.1448980E+01  0.0000000E+00  0.6122449E-01 -0.2928400E-04  0.0000000E+00 -0.8502104E-01
  0.1489796E+01  0.0000000E+00  0.6122449E-01 -0.2909214E-04  0.0000000E+00 -0.8504554E-01
  0.1530612E+01  0.0000000E+00  0.6122449E-01 -0.2848995E-04  0.0000000E+00 -0.8506970E-01
  0.1571429E+01  0.0000000E+00  0.6122449E-01 -0.2749098E-04  0.0000000E+00 -0.8509319E-01
  0.1612245E+01  0.0000000E+00  0.6122449E-01 -0.2611406E-04  0.0000000E+00 -0.8511568E-01
  0.1653061E+01  0.0000000E+00  0.6122449E-01 -0.2438262E-04  0.0000000E+00 -0.8513686E-01
  0.1693878E+01  0.0000000E+00  0.6122449E-01 -0.2232418E-04  0.0000000E+00 -0.8515645E-01
  0.1734694E+01  0.0000000E+00  0.6122449E-01 -0.1996992E-04  0.0000000E+00 -0.8517419E-01
  0.1775510E+01  0.0000000E+00  0.6122449E-01 -0.1735399E-04  0.0000000E+00 -0.8518985E-01
  0.1816326E+01  0.0000000E+00  0.6122449E-01 -0.1451275E-04  0.0000000E+00 -0.8520321E-01
  0.1857143E+01  0.0000000E+00  0.6122449E-01 -0.1148440E-04  0.0000000E+00 -0.8521412E-01
  0.1897959E+01  0.0000000E+00  0.6122449E-01 -0.8308636E-05  0.0000000E+00 -0.8522242E-01
  0.1938776E+01  0.0000000E+00  0.6122449E-01 -0.5026613E-05  0.0000000E+00 -0.8522801E-01
  0.1989796E+01  0.0000000E+00  0.6122449E-01 -0.1681891E-05  0.0000000E+00 -0.8523083E-01
  0.2040816E-01  0.0000000E+00  0.1020408E+00  0.2324299E-05  0.0000000E+00 -0.8510315E-01
  0.6122449E-01  0.0000000E+00  0.1020408E+00  0.6935012E-05  0.0000000E+00 -0.8510050E-01
  0.1020408E+00  0.0000000E+00  0.1020408E+00  0.1143703E-04  0.0000000E+00 -0.8509522E-01
  0.1428571E+00  0.0000000E+00  0.1020408E+00  0.1574071E-04  0.0000000E+00 -0.8508743E-01
  0.1836735E+00  0.0000000E+00  0.1020408E+00  0.1976836E-04  0.0000000E+00 -0.8507724E-01
  0.2244898E+00  0.0000000E+00  0.1020408E+00  0.2344338E-04  0.0000000E+00 -0.8506483E-01
  0.2653061E+00  0.0000000E+00  0.1020408E+00  0.2670782E-04  0.0000000E+00 -0.8505043E-01
  0.3061225E+00  0.0000000E+00  0.1020408E+00  0.2949917E-04  0.0000000E+00 -0.8503429E-01
  0.3469388E+00  0.0000000E+00  0.1020408E+00  0.3175681E-04  0.0000000E+00 -0.8501670E-01
  0.3877551E+00  0.0000000E+00  0.1020408E+00  0.3342995E-04  0.0000000E+00 -0.8499796E-01
  0.4285714E+00  0.0000000E+00  0.1020408E+00  0.3447932E-04  0.0000000E+00 -0.8497844E-01
  0.4693878E+00  0.0000000E+00  0.1020408E+00  0.3487663E-04  0.0000000E+00 -0.8495850E-01
  0.5102041E+00  0.0000000E+00  0.1020408E+00  0.3460472E-04  0.0000000E+00 -0.8493851E-01
  0.5510204E+00  0.0000000E+00  0.1020408E+00  0.3365848E-04  0.0000000E+00 -0.8491887E-01
  0.5918368E+00  0.0000000E+00  0.1020408E+00  0.3204591E-04  0.0000000E+00 -0.8489996E-01
  0.6326531E+00  0.0000000E+00  0.1020408E+00  0.2978873E-04  0.0000000E+00 -0.8488215E-01
  0.6734694E+00  0.0000000E+00  0.1020408E+00  0.2692224E-04  0.0000000E+00 -0.8486581E-01
  0.7142857E+00  0.0000000E+00  0.1020408E+00  0.2349466E-04  0.0000000E+00 -0.8485127E-01
  0.7551020E+00  0.0000000E+00  0.1020408E+00  0.1956571E-04  0.0000000E+00 -0.8483885E-01
  0.7959183E+00  0.0000000E+00  0.1020408E+00  0.1520498E-04  0.0000000E+00 -0.8482881E-01
  0.8367347E+00  0.0000000E+00  0.1020408E+00  0.1049058E-04  0.0000000E+00 -0.8482137E-01
  0.8775510E+00  0.0000000E+00  0.1020408E+00  0.5509323E-05  0.0000000E+00 -0.8481672E-01
  0.9183673E+00  0.0000000E+00  0.1020408E+00  0.3578446E-06  0.0000000E+00 -0.8481498E-01
  0.9591837E+00  0.0000000E+00  0.1020408E+00 -0.4867224E-05  0.0000000E+00 -0.8481622E-01
  0.1000000E+01  0.0000000E+00  0.1020408E+00 -0.1007415E-04  0.0000000E+00 -0.8482045E-01
  0.1040816E+01  0.0000000E+00  0.1020408E+00 -0.1518117E-04  0.0000000E+00 -0.8482765E-01
  0.1081633E+01  0.0000000E+00  0.1020408E+00 -0.2008320E-04  0.0000000E+00 -0.8483771E-01
  0.1122449E+01  0.0000000E+00  0.1020408E+00 -0.2469537E-04  0.0000000E+00 -0.8485050E-01
  0.1163265E+01  0.0000000E+00  0.1020408E+00 -0.2893467E-04  0.0000000E+00 -0.8486583E-01
  0.1204082E+01  0.0000000E+00  0.1020408E+00 -0.3274544E-04  0.0000000E+00 -0.8488347E-01
  0.1244898E+01  0.0000000E+00  0.1020408E+00 -0.3606893E-04  0.0000000E+00 -0.8490314E-01
  0.1285714E+01  0.0000000E+00  0.1020408E+00 -0.3885090E-04  0.0000000E+00 -0.8492456E-01
  0.1326531E+01  0.0000000E+00  0.1020408E+00 -0.4105050E-04  0.0000000E+00 -0.8494741E-01
  0.1367347E+01  0.0000000E+00  0.1020408E+00 -0.4264068E-04  0.0000000E+00 -0.8497133E-01
  0.1408163E+01  0.0000000E+00  0.1020408E+00 -0.4360591E-04  0.0000000E+00 -0.8499598E-01
  0.1448980E+01  0.0000000E+00  0.1020408E+00 -0.4394031E-04  0.0000000E+00 -0.8502100E-01
  0.1489796E+01  0.0000000E+00  0.1020408E+00 -0.4364711E-04  0.0000000E+00 -0.8504602E-01
  0.1530612E+01  0.0000000E+00  0.1020408E+00 -0.4273835E-04  0.0000000E+00 -0.8507069E-01
  0.1571429E+01  0.0000000E+00  0.1020408E+00 -0.4123465E-04  0.0000000E+00 -0.8509467E-01
  0.1612245E+01  0.0000000E+00  0.1020408E+00 -0.3916461E-04  0.0000000E+00 -0.8511763E-01
  0.1653061E+01  0.0000000E+00  0.1020408E+00 -0.3656373E-04  0.0000000E+00 -0.8513924E-01
  0.1693878E+01  0.0000000E+00  0.1020408E+00 -0.3347343E-04  0.0000000E+00 -0.8515923E-01
  0.1734694E+01  0.0000000E+00  0.1020408E+00 -0.2994054E-04  0.0000000E+00 -0.8517733E-01
  0.1775510E+01  0.0000000E+00  0.1020408E+00 -0.2601636E-04  0.0000000E+00 -0.8519329E-01
  0.1816326E+01  0.0000000E+00  0.1020408E+00 -0.2175548E-04  0.0000000E+00 -0.8520692E-01
  0.1857143E+01  0.0000000E+00  0.1020408E+00 -0.1721483E-04  0.0000000E+00 -0.8521803E-01
  0.1897959E+01  0.0000000E+00  0.1020408E+00 -0.1245352E-04  0.0000000E+00 -0.8522650E-01
  0.1938776E+01  0.0000000E+00  0.1020408E+00 -0.7533678E-05  0.0000000E+00 -0.8523220E-01
  0.1989796E+01  0.0000000E+00  0.1020408E+00 -0.2521658E-05  0.0000000E+00 -0.8523506E-01
  0.2040816E-01  0.0000000E+00  0.1428571E+00  0.3009592E-05  0.0000000E+00 -0.8510846E-01
  0.6122449E-01  0.0000000E+00  0.1428571E+00  0.8978994E-05  0.0000000E+00 -0.8510571E-01
  0.1020408E+00  0.0000000E+00  0.1428571E+00  0.1480712E-04  0.0000000E+00 -0.8510026E-01
  0.1428571E+00  0.0000000E+00  0.1428571E+00  0.2037917E-04  0.0000000E+00 -0.8509219E-01
  0.1836735E+00  0.0000000E+00  0.1428571E+00  0.2559680E-04  0.0000000E+00 -0.8508165E-01
  0.2244898E+00  0.0000000E+00  0.1428571E+00  0.3036231E-04  0.0000000E+00 -0.8506880E-01
  0.2653061E+00  0.0000000E+00  0.1428571E+00  0.3459772E-04  0.0000000E+00 -0.8505389E-01
  0.3061225E+00  0.0000000E+00  0.1428571E+00  0.3822168E-04  0.0000000E+00 -0.8503717E-01
  0.3469388E+00  0.0000000E+00  0.1428571E+00  0.4115629E-04  0.0000000E+00 -0.8501892E-01
  0.3877551E+00  0.0000000E+00  0.1428571E+00  0.4333573E-04  0.0000000E+00 -0.8499950E-01
  0.4285714E+00  0.0000000E+00  0.1428571E+00  0.4470828E-04  0.0000000E+00 -0.8497924E-01
  0.4693878E+00  0.0000000E+00  0.1428571E+00  0.4523617E-04  0.0000000E+00 -0.8495853E-01
  0.5102041E+00  0.0000000E+00  0.1428571E+00  0.4489614E-04  0.0000000E+00 -0.8493777E-01
  0.5510204E+00  0.0000000E+00  0.1428571E+00  0.4368082E-04  0.0000000E+00 -0.8491735E-01
  0.5918368E+00  0.0000000E+00  0.1428571E+00  0.4160012E-04  0.0000000E+00 -0.8489767E-01
  0.6326531E+00  0.0000000E+00  0.1428571E+00  0.3868205E-04  0.0000000E+00 -0.8487914E-01
  0.6734694E+00  0.0000000E+00  0.1428571E+00  0.3497256E-04  0.0000000E+00 -0.8486212E-01
  0.7142857E+00  0.0000000E+00  0.1428571E+00  0.3053437E-04  0.0000000E+00 -0.8484697E-01
  0.7551020E+00  0.0000000E+00  0.1428571E+00  0.2544498E-04  0.0000000E+00 -0.8483401E-01
  0.7959183E+00  0.0000000E+00  0.1428571E+00  0.1979441E-04  0.0000000E+00 -0.8482351E-01
  0.8367347E+00  0.0000000E+00  0.1428571E+00  0.1368388E-04  0.0000000E+00 -0.8481572E-01
  0.8775510E+00  0.0000000E+00  0.1428571E+00  0.7227703E-05  0.0000000E+00 -0.8481082E-01
  0.9183673E+00  0.0000000E+00  0.1428571E+00  0.5514205E-06  0.0000000E+00 -0.8480893E-01
  0.9591837E+00  0.0000000E+00  0.1428571E+00 -0.6221710E-05  0.0000000E+00 -0.8481013E-01
  0.1000000E+01  0.0000000E+00  0.1428571E+00 -0.1296874E-04  0.0000000E+00 -0.8481444E-01
  0.1040816E+01  0.0000000E+00  0.1428571E+00 -0.1958239E-04  0.0000000E+00 -0.8482182E-01
  0.1081633E+01  0.0000000E+00  0.1428571E+00 -0.2592725E-04  0.0000000E+00 -0.8483217E-01
  0.1122449E+01  0.0000000E+00  0.1428571E+00 -0.3189510E-04  0.0000000E+00 -0.8484534E-01
  0.1163265E+01  0.0000000E+00  0.1428571E+00 -0.3738015E-04  0.0000000E+00 -0.8486113E-01
  0.1204082E+01  0.0000000E+00  0.1428571E+00 -0.4230696E-04  0.0000000E+00 -0.8487930E-01
  0.1244898E+01  0.0000000E+00  0.1428571E+00 -0.4659942E-04  0.0000000E+00 -0.8489958E-01
  0.1285714E+01  0.0000000E+00  0.1428571E+00 -0.5018905E-04  0.0000000E+00 -0.8492165E-01
  0.1326531E+01  0.0000000E+00  0.1428571E+00 -0.5302428E-04  0.0000000E+00 -0.8494517E-01
  0.1367347E+01  0.0000000E+00  0.1428571E+00 -0.5507065E-04  0.0000000E+00 -0.8496981E-01
  0.1408163E+01  0.0000000E+00  0.1428571E+00 -0.5630832E-04  0.0000000E+00 -0.8499519E-01
  0.1448980E+01  0.0000000E+00  0.1428571E+00 -0.5673027E-04  0.0000000E+00 -0.8502093E-01
  0.1489796E+01  0.0000000E+00  0.1428571E+00 -0.5634148E-04  0.0000000E+00 -0.8504667E-01
  0.1530612E+01  0.0000000E+00  0.1428571E+00 -0.5515832E-04  0.0000000E+00 -0.8507205E-01
  0.1571429E+01  0.0000000E+00  0.1428571E+00 -0.5320802E-04  0.0000000E+00 -0.8509670E-01
  0.1612245E+01  0.0000000E+00  0.1428571E+00 -0.5052799E-04  0.0000000E+00 -0.8512028E-01
  0.1653061E+01  0.0000000E+00  0.1428571E+00 -0.4716460E-04  0.0000000E+00 -0.8514249E-01
  0.1693878E+01  0.0000000E+00  0.1428571E+00 -0.4317173E-04  0.0000000E+00 -0.8516301E-01
  0.1734694E+01  0.0000000E+00  0.1428571E+00 -0.3860989E-04  0.0000000E+00 -0.8518159E-01
  0.1775510E+01  0.0000000E+00  0.1428571E+00 -0.3354535E-04  0.0000000E+00 -0.8519797E-01
  0.1816326E+01  0.0000000E+00  0.1428571E+00 -0.2804863E-04  0.0000000E+00 -0.8521196E-01
  0.1857143E+01  0.0000000E+00  0.1428571E+00 -0.2219280E-04  0.0000000E+00 -0.8522336E-01
  0.1897959E+01  0.0000000E+00  0.1428571E+00 -0.1605342E-04  0.0000000E+00 -0.8523204E-01
  0.1938776E+01  0.0000000E+00  0.1428571E+00 -0.9710738E-05  0.0000000E+00 -0.8523788E-01
  0.1989796E+01  0.0000000E+00  0.1428571E+00 -0.3250562E-05  0.0000000E+00 -0.8524082E-01
  0.2040816E-01  0.0000000E+00  0.1836735E+00  0.3638773E-05  0.0000000E+00 -0.8511505E-01
  0.6122449E-01  0.0000000E+00  0.1836735E+00  0.1085612E-04  0.0000000E+00 -0.8511219E-01
  0.1020408E+00  0.0000000E+00  0.1836735E+00  0.1790258E-04  0.0000000E+00 -0.8510651E-01
  0.1428571E+00  0.0000000E+00  0.1836735E+00  0.2464183E-04  0.0000000E+00 -0.8509811E-01
  0.1836735E+00  0.0000000E+00  0.1836735E+00  0.3095626E-04  0.0000000E+00 -0.8508712E-01
  0.2244898E+00  0.0000000E+00  0.1836735E+00  0.3672905E-04  0.0000000E+00 -0.8507374E-01
  0.2653061E+00  0.0000000E+00  0.1836735E+00  0.4186391E-04  0.0000000E+00 -0.8505819E-01
  0.3061225E+00  0.0000000E+00  0.1836735E+00  0.4626211E-04  0.0000000E+00 -0.8504074E-01
  0.3469388E+00  0.0000000E+00  0.1836735E+00  0.4982965E-04  0.0000000E+00 -0.8502170E-01
  0.3877551E+00  0.0000000E+00  0.1836735E+00  0.5248632E-04  0.0000000E+00 -0.8500141E-01
  0.4285714E+00  0.0000000E+00  0.1836735E+00  0.5416819E-04  0.0000000E+00 -0.8498023E-01
  0.4693878E+00  0.0000000E+00  0.1836735E+00  0.5482790E-04  0.0000000E+00 -0.8495857E-01
  0.5102041E+00  0.0000000E+00  0.1836735E+00  0.5443570E-04  0.0000000E+00 -0.8493684E-01
  0.5510204E+00  0.0000000E+00  0.1836735E+00  0.5298142E-04  0.0000000E+00 -0.8491545E-01
  0.5918368E+00  0.0000000E+00  0.1836735E+00  0.5047632E-04  0.0000000E+00 -0.8489483E-01
  0.6326531E+00  0.0000000E+00  0.1836735E+00  0.4695414E-04  0.0000000E+00 -0.8487539E-01
  0.6734694E+00  0.0000000E+00  0.1836735E+00  0.4247082E-04  0.0000000E+00 -0.8485753E-01
  0.7142857E+00  0.0000000E+00  0.1836735E+00  0.3710275E-04  0.0000000E+00 -0.8484162E-01
  0.7551020E+00  0.0000000E+00  0.1836735E+00  0.3094400E-04  0.0000000E+00 -0.8482798E-01
  0.7959183E+00  0.0000000E+00  0.1836735E+00  0.2410344E-04  0.0000000E+00 -0.8481692E-01
  0.8367347E+00  0.0000000E+00  0.1836735E+00  0.1670365E-04  0.0000000E+00 -0.8480868E-01
  0.8775510E+00  0.0000000E+00  0.1836735E+00  0.8884508E-05  0.0000000E+00 -0.8480346E-01
  0.9183673E+00  0.0000000E+00  0.1836735E+00  0.7997172E-06  0.0000000E+00 -0.8480139E-01
  0.9591837E+00  0.0000000E+00  0.1836735E+00 -0.7402723E-05  0.0000000E+00 -0.8480256E-01
  0.1000000E+01  0.0000000E+00  0.1836735E+00 -0.1557023E-04  0.0000000E+00 -0.8480696E-01
  0.1040816E+01  0.0000000E+00  0.1836735E+00 -0.2357109E-04  0.0000000E+00 -0.8481457E-01
  0.1081633E+01  0.0000000E+00  0.1836735E+00 -0.3124278E-04  0.0000000E+00 -0.8482528E-01
  0.1122449E+01  0.0000000E+00  0.1836735E+00 -0.3845469E-04  0.0000000E+00 -0.8483892E-01
  0.1163265E+01  0.0000000E+00  0.1836735E+00 -0.4508020E-04  0.0000000E+00 -0.8485529E-01
  0.1204082E+01  0.0000000E+00  0.1836735E+00 -0.5102610E-04  0.0000000E+00 -0.8487413E-01
  0.1244898E+01  0.0000000E+00  0.1836735E+00 -0.5620075E-04  0.0000000E+00 -0.8489515E-01
  0.1285714E+01  0.0000000E+00  0.1836735E+00 -0.6052290E-04  0.0000000E+00 -0.8491802E-01
  0.1326531E+01  0.0000000E+00  0.1836735E+00 -0.6393160E-04  0.0000000E+00 -0.8494241E-01
  0.1367347E+01  0.0000000E+00  0.1836735E+00 -0.6638627E-04  0.0000000E+00 -0.8496793E-01
  0.1408163E+01  0.0000000E+00  0.1836735E+00 -0.6786377E-04  0.0000000E+00 -0.8499421E-01
  0.1448980E+01  0.0000000E+00  0.1836735E+00 -0.6835651E-04  0.0000000E+00 -0.8502085E-01
  0.1489796E+01  0.0000000E+00  0.1836735E+00 -0.6787163E-04  0.0000000E+00 -0.8504749E-01
  0.1530612E+01  0.0000000E+00  0.1836735E+00 -0.6643020E-04  0.0000000E+00 -0.8507372E-01
  0.1571429E+01  0.0000000E+00  0.1836735E+00 -0.6406610E-04  0.0000000E+00 -0.8509920E-01
  0.1612245E+01  0.0000000E+00  0.1836735E+00 -0.6082513E-04  0.0000000E+00 -0.8512357E-01
  0.1653061E+01  0.0000000E+00  0.1836735E+00 -0.5676384E-04  0.0000000E+00 -0.8514650E-01
  0.1693878E+01  0.0000000E+00  0.1836735E+00 -0.5194783E-04  0.0000000E+00 -0.8516769E-01
  0.1734694E+01  0.0000000E+00  0.1836735E+00 -0.4645021E-04  0.0000000E+00 -0.8518686E-01
  0.1775510E+01  0.0000000E+00  0.1836735E+00 -0.4035075E-04  0.0000000E+00 -0.8520376E-01
  0.1816326E+01  0.0000000E+00  0.1836735E+00 -0.3373430E-04  0.0000000E+00 -0.8521818E-01
  0.1857143E+01  0.0000000E+00  0.1836735E+00 -0.2668864E-04  0.0000000E+00 -0.8522994E-01
  0.1897959E+01  0.0000000E+00  0.1836735E+00 -0.1930397E-04  0.0000000E+00 -0.8523888E-01
  0.1938776E+01  0.0000000E+00  0.1836735E+00 -0.1167620E-04  0.0000000E+00 -0.8524491E-01
  0.1989796E+01  0.0000000E+00  0.1836735E+00 -0.3908301E-05  0.0000000E+00 -0.8524794E-01
  0.2040816E-01  0.0000000E+00  0.2244898E+00  0.4234202E-05  0.0000000E+00 -0.8512283E-01
  0.6122449E-01  0.0000000E+00  0.2244898E+00  0.1263295E-04  0.0000000E+00 -0.8511983E-01
  0.1020408E+00  0.0000000E+00  0.2244898E+00  0.2083354E-04  0.0000000E+00 -0.8511389E-01
  0.1428571E+00  0.0000000E+00  0.2244898E+00  0.2868024E-04  0.0000000E+00 -0.8510510E-01
  0.1836735E+00  0.0000000E+00  0.2244898E+00  0.3603751E-04  0.0000000E+00 -0.8509359E-01
  0.2244898E+00  0.0000000E+00  0.2244898E+00  0.4277069E-04  0.0000000E+00 -0.8507958E-01
  0.2653061E+00  0.0000000E+00  0.2244898E+00  0.4876631E-04  0.0000000E+00 -0.8506328E-01
  0.3061225E+00  0.0000000E+00  0.2244898E+00  0.5390908E-04  0.0000000E+00 -0.8504498E-01
  0.3469388E+00  0.0000000E+00  0.2244898E+00  0.5808938E-04  0.0000000E+00 -0.8502500E-01
  0.3877551E+00  0.0000000E+00  0.2244898E+00  0.6121273E-04  0.0000000E+00 -0.8500368E-01
  0.4285714E+00  0.0000000E+00  0.2244898E+00  0.6320269E-04  0.0000000E+00 -0.8498142E-01
  0.4693878E+00  0.0000000E+00  0.2244898E+00  0.6400163E-04  0.0000000E+00 -0.8495864E-01
  0.5102041E+00  0.0000000E+00  0.2244898E+00  0.6357247E-04  0.0000000E+00 -0.8493575E-01
  0.5510204E+00  0.0000000E+00  0.2244898E+00  0.6190140E-04  0.0000000E+00 -0.8491322E-01
  0.5918368E+00  0.0000000E+00  0.2244898E+00  0.5900048E-04  0.0000000E+00 -0.8489147E-01
  0.6326531E+00  0.0000000E+00  0.2244898E+00  0.5490895E-04  0.0000000E+00 -0.8487096E-01
  0.6734694E+00  0.0000000E+00  0.2244898E+00  0.4969269E-04  0.0000000E+00 -0.8485209E-01
  0.7142857E+00  0.0000000E+00  0.2244898E+00  0.4344149E-04  0.0000000E+00 -0.8483527E-01
  0.7551020E+00  0.0000000E+00  0.2244898E+00  0.3626532E-04  0.0000000E+00 -0.8482083E-01
  0.7959183E+00  0.0000000E+00  0.2244898E+00  0.2829099E-04  0.0000000E+00 -0.8480910E-01
  0.8367347E+00  0.0000000E+00  0.2244898E+00  0.1966168E-04  0.0000000E+00 -0.8480033E-01
  0.8775510E+00  0.0000000E+00  0.2244898E+00  0.1054114E-04  0.0000000E+00 -0.8479473E-01
  0.9183673E+00  0.0000000E+00  0.2244898E+00  0.1111397E-05  0.0000000E+00 -0.8479246E-01
  0.9591837E+00  0.0000000E+00  0.2244898E+00 -0.8454493E-05  0.0000000E+00 -0.8479357E-01
  0.1000000E+01  0.0000000E+00  0.2244898E+00 -0.1797531E-04  0.0000000E+00 -0.8479810E-01
  0.1040816E+01  0.0000000E+00  0.2244898E+00 -0.2729489E-04  0.0000000E+00 -0.8480599E-01
  0.1081633E+01  0.0000000E+00  0.2244898E+00 -0.3622524E-04  0.0000000E+00 -0.8481712E-01
  0.1122449E+01  0.0000000E+00  0.2244898E+00 -0.4461432E-04  0.0000000E+00 -0.8483132E-01
  0.1163265E+01  0.0000000E+00  0.2244898E+00 -0.5231583E-04  0.0000000E+00 -0.8484838E-01
  0.1204082E+01  0.0000000E+00  0.2244898E+00 -0.5922010E-04  0.0000000E+00 -0.8486801E-01
  0.1244898E+01  0.0000000E+00  0.2244898E+00 -0.6522131E-04  0.0000000E+00 -0.8488992E-01
  0.1285714E+01  0.0000000E+00  0.2244898E+00 -0.7022655E-04  0.0000000E+00 -0.8491375E-01
  0.1326531E+01  0.0000000E+00  0.2244898E+00 -0.7416638E-04  0.0000000E+00 -0.8493915E-01
  0.1367347E+01  0.0000000E+00  0.2244898E+00 -0.7699504E-04  0.0000000E+00 -0.8496572E-01
  0.1408163E+01  0.0000000E+00  0.2244898E+00 -0.7868714E-04  0.0000000E+00 -0.8499306E-01
  0.1448980E+01  0.0000000E+00  0.2244898E+00 -0.7923537E-04  0.0000000E+00 -0.8502078E-01
  0.1489796E+01  0.0000000E+00  0.2244898E+00 -0.7864954E-04  0.0000000E+00 -0.8504846E-01
  0.1530612E+01  0.0000000E+00  0.2244898E+00 -0.7695579E-04  0.0000000E+00 -0.8507571E-01
  0.1571429E+01  0.0000000E+00  0.2244898E+00 -0.7419502E-04  0.0000000E+00 -0.8510217E-01
  0.1612245E+01  0.0000000E+00  0.2244898E+00 -0.7042149E-04  0.0000000E+00 -0.8512745E-01
  0.1653061E+01  0.0000000E+00  0.2244898E+00 -0.6570156E-04  0.0000000E+00 -0.8515123E-01
  0.1693878E+01  0.0000000E+00  0.2244898E+00 -0.6011209E-04  0.0000000E+00 -0.8517320E-01
  0.1734694E+01  0.0000000E+00  0.2244898E+00 -0.5373837E-04  0.0000000E+00 -0.8519306E-01
  0.1775510E+01  0.0000000E+00  0.2244898E+00 -0.4667265E-04  0.0000000E+00 -0.8521056E-01
  0.1816326E+01  0.0000000E+00  0.2244898E+00 -0.3901285E-04  0.0000000E+00 -0.8522549E-01
  0.1857143E+01  0.0000000E+00  0.2244898E+00 -0.3086039E-04  0.0000000E+00 -0.8523766E-01
  0.1897959E+01  0.0000000E+00  0.2244898E+00 -0.2231928E-04  0.0000000E+00 -0.8524692E-01
  0.1938776E+01  0.0000000E+00  0.2244898E+00 -0.1349924E-04  0.0000000E+00 -0.8525316E-01
  0.1989796E+01  0.0000000E+00  0.2244898E+00 -0.4518378E-05  0.0000000E+00 -0.8525629E-01
  0.2040816E-01  0.0000000E+00  0.2653061E+00  0.4811049E-05  0.0000000E+00 -0.8513175E-01
  0.6122449E-01  0.0000000E+00  0.2653061E+00  0.1435463E-04  0.0000000E+00 -0.8512860E-01
  0.1020408E+00  0.0000000E+00  0.2653061E+00  0.2367465E-04  0.0000000E+00 -0.8512236E-01
  0.1428571E+00  0.0000000E+00  0.2653061E+00  0.3259744E-04  0.0000000E+00 -0.8511312E-01
  0.1836735E+00  0.0000000E+00  0.2653061E+00  0.4097053E-04  0.0000000E+00 -0.8510103E-01
  0.2244898E+00  0.0000000E+00  0.2653061E+00  0.4864237E-04  0.0000000E+00 -0.8508629E-01
  0.2653061E+00  0.0000000E+00  0.2653061E+00  0.5548300E-04  0.0000000E+00 -0.8506914E-01
  0.3061225E+00  0.0000000E+00  0.2653061E+00  0.6136099E-04  0.0000000E+00 -0.8504987E-01
  0.3469388E+00  0.0000000E+00  0.2653061E+00  0.6615118E-04  0.0000000E+00 -0.8502881E-01
  0.3877551E+00  0.0000000E+00  0.2653061E+00  0.6974448E-04  0.0000000E+00 -0.8500632E-01
  0.4285714E+00  0.0000000E+00  0.2653061E+00  0.7205118E-04  0.0000000E+00 -0.8498282E-01
  0.4693878E+00  0.0000000E+00  0.2653061E+00  0.7300226E-04  0.0000000E+00 -0.8495874E-01
  0.5102041E+00  0.0000000E+00  0.2653061E+00  0.7255189E-04  0.0000000E+00 -0.8493453E-01
  0.5510204E+00  0.0000000E+00  0.2653061E+00  0.7068130E-04  0.0000000E+00 -0.8491066E-01
  0.5918368E+00  0.0000000E+00  0.2653061E+00  0.6740262E-04  0.0000000E+00 -0.8488762E-01
  0.6326531E+00  0.0000000E+00  0.2653061E+00  0.6276081E-04  0.0000000E+00 -0.8486586E-01
  0.6734694E+00  0.0000000E+00  0.2653061E+00  0.5683245E-04  0.0000000E+00 -0.8484584E-01
  0.7142857E+00  0.0000000E+00  0.2653061E+00  0.4972120E-04  0.0000000E+00 -0.8482796E-01
  0.7551020E+00  0.0000000E+00  0.2653061E+00  0.4155247E-04  0.0000000E+00 -0.8481260E-01
  0.7959183E+00  0.0000000E+00  0.2653061E+00  0.3247013E-04  0.0000000E+00 -0.8480009E-01
  0.8367347E+00  0.0000000E+00  0.2653061E+00  0.2263741E-04  0.0000000E+00 -0.8479071E-01
  0.8775510E+00  0.0000000E+00  0.2653061E+00  0.1224114E-04  0.0000000E+00 -0.8478468E-01
  0.9183673E+00  0.0000000E+00  0.2653061E+00  0.1492124E-05  0.0000000E+00 -0.8478216E-01
  0.9591837E+00  0.0000000E+00  0.2653061E+00 -0.9409481E-05  0.0000000E+00 -0.8478323E-01
  0.1000000E+01  0.0000000E+00  0.2653061E+00 -0.2025337E-04  0.0000000E+00 -0.8478790E-01
  0.1040816E+01  0.0000000E+00  0.2653061E+00 -0.3085856E-04  0.0000000E+00 -0.8479611E-01
  0.1081633E+01  0.0000000E+00  0.2653061E+00 -0.4101257E-04  0.0000000E+00 -0.8480774E-01
  0.1122449E+01  0.0000000E+00  0.2653061E+00 -0.5054281E-04  0.0000000E+00 -0.8482260E-01
  0.1163265E+01  0.0000000E+00  0.2653061E+00 -0.5928400E-04  0.0000000E+00 -0.8484045E-01
  0.1204082E+01  0.0000000E+00  0.2653061E+00 -0.6711074E-04  0.0000000E+00 -0.8486100E-01
  0.1244898E+01  0.0000000E+00  0.2653061E+00 -0.7390388E-04  0.0000000E+00 -0.8488393E-01
  0.1285714E+01  0.0000000E+00  0.2653061E+00 -0.7955983E-04  0.0000000E+00 -0.8490887E-01
  0.1326531E+01  0.0000000E+00  0.2653061E+00 -0.8400142E-04  0.0000000E+00 -0.8493544E-01