title = "dataset feddes"
variables = "x", "y", "z", "vx", "vy", "vz"
zone t = "velocities, solution time =  1.000E+00 days        " i =   49, j =   49, k =    1,  f=point
  0.2040816E-01  0.0000000E+00  0.2040816E-01  0.1165997E-09  0.0000000E+00  0.4113158E-01
  0.6122449E-01  0.0000000E+00  0.2040816E-01  0.1360882E-09  0.0000000E+00  0.4113158E-01
  0.1020408E+00  0.0000000E+00  0.2040816E-01  0.1147670E-09  0.0000000E+00  0.4113158E-01
  0.1428571E+00  0.0000000E+00  0.2040816E-01  0.2217840E-09  0.0000000E+00  0.4113158E-01
  0.1836735E+00  0.0000000E+00  0.2040816E-01  0.1021175E-09  0.0000000E+00  0.4113158E-01
  0.2244898E+00  0.0000000E+00  0.2040816E-01 -0.2556129E-10  0.0000000E+00  0.4113158E-01
  0.2653061E+00  0.0000000E+00  0.2040816E-01 -0.5227996E-10  0.0000000E+00  0.4113158E-01
  0.3061225E+00  0.0000000E+00  0.2040816E-01 -0.3560604E-10  0.0000000E+00  0.4113158E-01
  0.3469388E+00  0.0000000E+00  0.2040816E-01 -0.3267555E-10  0.0000000E+00  0.4113158E-01
  0.3877551E+00  0.0000000E+00  0.2040816E-01 -0.3033924E-10  0.0000000E+00  0.4113158E-01
  0.4285714E+00  0.0000000E+00  0.2040816E-01 -0.1329662E-10  0.0000000E+00  0.4113158E-01
  0.4693878E+00  0.0000000E+00  0.2040816E-01  0.5868896E-11  0.0000000E+00  0.4113158E-01
  0.5102041E+00  0.0000000E+00  0.2040816E-01  0.1470771E-10  0.0000000E+00  0.4113158E-01
  0.5510204E+00  0.0000000E+00  0.2040816E-01  0.1140881E-10  0.0000000E+00  0.4113158E-01
  0.5918368E+00  0.0000000E+00  0.2040816E-01  0.3647619E-12  0.0000000E+00  0.4113158E-01
  0.6326531E+00  0.0000000E+00  0.2040816E-01 -0.1221612E-10  0.0000000E+00  0.4113158E-01
  0.6734694E+00  0.0000000E+00  0.2040816E-01 -0.1964482E-10  0.0000000E+00  0.4113158E-01
  0.7142857E+00  0.0000000E+00  0.2040816E-01 -0.6883773E-11  0.0000000E+00  0.4113158E-01
  0.7551020E+00  0.0000000E+00  0.2040816E-01  0.1472553E-10  0.0000000E+00  0.4113158E-01
  0.7959183E+00  0.0000000E+00  0.2040816E-01  0.5214667E-10  0.0000000E+00  0.4113158E-01
  0.8367347E+00  0.0000000E+00  0.2040816E-01  0.8871098E-10  0.0000000E+00  0.4113158E-01
  0.8775510E+00  0.0000000E+00  0.2040816E-01  0.9559770E-10  0.0000000E+00  0.4113158E-01
  0.9183673E+00  0.0000000E+00  0.2040816E-01  0.4960061E-10  0.0000000E+00  0.4113158E-01
  0.9591837E+00  0.0000000E+00  0.2040816E-01  0.9916029E-11  0.0000000E+00  0.4113158E-01
  0.1000000E+01  0.0000000E+00  0.2040816E-01 -0.5114737E-10  0.0000000E+00  0.4113158E-01
  0.1040816E+01  0.0000000E+00  0.2040816E-01 -0.1107259E-09  0.0000000E+00  0.4113158E-01
  0.1081633E+01  0.0000000E+00  0.2040816E-01 -0.8208663E-10  0.0000000E+00  0.4113158E-01
  0.1122449E+01  0.0000000E+00  0.2040816E-01 -0.1031102E-09  0.0000000E+00  0.4113158E-01
  0.1163265E+01  0.0000000E+00  0.2040816E-01 -0.2835737E-10  0.0000000E+00  0.4113158E-01
  0.1204082E+01  0.0000000E+00  0.2040816E-01  0.2532834E-10  0.0000000E+00  0.4113158E-01
  0.1244898E+01  0.0000000E+00  0.2040816E-01  0.5358270E-10  0.0000000E+00  0.4113158E-01
  0.1285714E+01  0.0000000E+00  0.2040816E-01  0.5369684E-10  0.0000000E+00  0.4113158E-01
  0.1326531E+01  0.0000000E+00  0.2040816E-01  0.1362365E-09  0.0000000E+00  0.4113158E-01
  0.1367347E+01  0.0000000E+00  0.2040816E-01  0.5455553E-10  0.0000000E+00  0.4113158E-01
  0.1408163E+01  0.0000000E+00  0.2040816E-01 -0.2192126E-10  0.0000000E+00  0.4113158E-01
  0.1448980E+01  0.0000000E+00  0.2040816E-01 -0.4610316E-10  0.0000000E+00  0.4113158E-01
  0.1489796E+01  0.0000000E+00  0.2040816E-01 -0.2924853E-10  0.0000000E+00  0.4113158E-01
  0.1530612E+01  0.0000000E+00  0.2040816E-01 -0.8795718E-11  0.0000000E+00  0.4113158E-01
  0.1571429E+01  0.0000000E+00  0.2040816E-01  0.2726283E-11  0.0000000E+00  0.4113158E-01
  0.1612245E+01  0.0000000E+00  0.2040816E-01  0.3950194E-11  0.0000000E+00  0.4113158E-01
  0.1653061E+01  0.0000000E+00  0.2040816E-01 -0.1337628E-11  0.0000000E+00  0.4113158E-01
  0.1693878E+01  0.0000000E+00  0.2040816E-01 -0.7945856E-11  0.0000000E+00  0.4113158E-01
  0.1734694E+01  0.0000000E+00  0.2040816E-01 -0.1032643E-10  0.0000000E+00  0.4113158E-01
  0.1775510E+01  0.0000000E+00  0.2040816E-01 -0.2401969E-11  0.0000000E+00  0.4113158E-01
  0.1816326E+01  0.0000000E+00  0.2040816E-01  0.2144610E-10  0.0000000E+00  0.4113158E-01
  0.1857143E+01  0.0000000E+00  0.2040816E-01  0.6160997E-10  0.0000000E+00  0.4113158E-01
  0.1897959E+01  0.0000000E+00  0.2040816E-01  0.1085408E-09  0.0000000E+00  0.4113158E-01
  0.1938776E+01  0.0000000E+00  0.2040816E-01  0.1489463E-09  0.0000000E+00  0.4113158E-01
  0.1989796E+01  0.0000000E+00  0.2040816E-01  0.2069231E-09  0.0000000E+00  0.4113158E-01
  0.2040816E-01  0.0000000E+00  0.6122449E-01  0.3144711E-09  0.0000000E+00  0.4112379E-01
  0.6122449E-01  0.0000000E+00  0.6122449E-01  0.5081949E-09  0.0000000E+00  0.4112379E-01
  0.1020408E+00  0.0000000E+00  0.6122449E-01  0.3733932E-09  0.0000000E+00  0.4112379E-01
  0.1428571E+00  0.0000000E+00  0.6122449E-01  0.5852582E-09  0.0000000E+00  0.4112379E-01
  0.1836735E+00  0.0000000E+00  0.6122449E-01  0.2906161E-09  0.0000000E+00  0.4112379E-01
  0.2244898E+00  0.0000000E+00  0.6122449E-01 -0.5931948E-10  0.0000000E+00  0.4112379E-01
  0.2653061E+00  0.0000000E+00  0.6122449E-01 -0.1436570E-09  0.0000000E+00  0.4112379E-01
  0.3061225E+00  0.0000000E+00  0.6122449E-01 -0.8991631E-10  0.0000000E+00  0.4112379E-01
  0.3469388E+00  0.0000000E+00  0.6122449E-01 -0.8123919E-10  0.0000000E+00  0.4112379E-01
  0.3877551E+00  0.0000000E+00  0.6122449E-01 -0.8839550E-10  0.0000000E+00  0.4112379E-01
  0.4285714E+00  0.0000000E+00  0.6122449E-01 -0.4789779E-10  0.0000000E+00  0.4112379E-01
  0.4693878E+00  0.0000000E+00  0.6122449E-01  0.9055218E-11  0.0000000E+00  0.4112379E-01
  0.5102041E+00  0.0000000E+00  0.6122449E-01  0.3911523E-10  0.0000000E+00  0.4112379E-01
  0.5510204E+00  0.0000000E+00  0.6122449E-01  0.3104403E-10  0.0000000E+00  0.4112379E-01
  0.5918368E+00  0.0000000E+00  0.6122449E-01 -0.3507958E-11  0.0000000E+00  0.4112379E-01
  0.6326531E+00  0.0000000E+00  0.6122449E-01 -0.4382229E-10  0.0000000E+00  0.4112379E-01
  0.6734694E+00  0.0000000E+00  0.6122449E-01 -0.6473594E-10  0.0000000E+00  0.4112379E-01
  0.7142857E+00  0.0000000E+00  0.6122449E-01 -0.2078467E-10  0.0000000E+00  0.4112379E-01
  0.7551020E+00  0.0000000E+00  0.6122449E-01  0.5842812E-10  0.0000000E+00  0.4112379E-01
  0.7959183E+00  0.0000000E+00  0.6122449E-01  0.1871066E-09  0.0000000E+00  0.4112379E-01
  0.8367347E+00  0.0000000E+00  0.6122449E-01  0.3029385E-09  0.0000000E+00  0.4112379E-01
  0.8775510E+00  0.0000000E+00  0.6122449E-01  0.3048038E-09  0.0000000E+00  0.4112379E-01
  0.9183673E+00  0.0000000E+00  0.6122449E-01  0.1450113E-09  0.0000000E+00  0.4112379E-01
  0.9591837E+00  0.0000000E+00  0.6122449E-01 -0.4998030E-10  0.0000000E+00  0.4112379E-01
  0.1000000E+01  0.0000000E+00  0.6122449E-01 -0.1779695E-09  0.0000000E+00  0.4112379E-01
  0.1040816E+01  0.0000000E+00  0.6122449E-01 -0.3436869E-09  0.0000000E+00  0.4112379E-01
  0.1081633E+01  0.0000000E+00  0.6122449E-01 -0.1703449E-09  0.0000000E+00  0.4112379E-01
  0.1122449E+01  0.0000000E+00  0.6122449E-01 -0.3507665E-09  0.0000000E+00  0.4112379E-01
  0.1163265E+01  0.0000000E+00  0.6122449E-01 -0.8358167E-10  0.0000000E+00  0.4112379E-01
  0.1204082E+01  0.0000000E+00  0.6122449E-01  0.4749719E-10  0.0000000E+00  0.4112379E-01
  0.1244898E+01  0.0000000E+00  0.6122449E-01  0.2205539E-09  0.0000000E+00  0.4112379E-01
  0.1285714E+01  0.0000000E+00  0.6122449E-01  0.2335851E-09  0.0000000E+00  0.4112379E-01
  0.1326531E+01  0.0000000E+00  0.6122449E-01  0.3700098E-09  0.0000000E+00  0.4112379E-01
  0.1367347E+01  0.0000000E+00  0.6122449E-01  0.1313577E-09  0.0000000E+00  0.4112379E-01
  0.1408163E+01  0.0000000E+00  0.6122449E-01 -0.7597226E-10  0.0000000E+00  0.4112379E-01
  0.1448980E+01  0.0000000E+00  0.6122449E-01 -0.1347140E-09  0.0000000E+00  0.4112379E-01
  0.1489796E+01  0.0000000E+00  0.6122449E-01 -0.8388297E-10  0.0000000E+00  0.4112379E-01
  0.1530612E+01  0.0000000E+00  0.6122449E-01 -0.2477475E-10  0.0000000E+00  0.4112379E-01
  0.1571429E+01  0.0000000E+00  0.6122449E-01  0.7865211E-11  0.0000000E+00  0.4112379E-01
  0.1612245E+01  0.0000000E+00  0.6122449E-01  0.9803913E-11  0.0000000E+00  0.4112379E-01
  0.1653061E+01  0.0000000E+00  0.6122449E-01 -0.7982228E-11  0.0000000E+00  0.4112379E-01
  0.1693878E+01  0.0000000E+00  0.6122449E-01 -0.2907210E-10  0.0000000E+00  0.4112379E-01
  0.1734694E+01  0.0000000E+00  0.6122449E-01 -0.3518992E-10  0.0000000E+00  0.4112379E-01
  0.1775510E+01  0.0000000E+00  0.6122449E-01 -0.6078575E-11  0.0000000E+00  0.4112379E-01
  0.1816326E+01  0.0000000E+00  0.6122449E-01  0.7710770E-10  0.0000000E+00  0.4112379E-01
  0.1857143E+01  0.0000000E+00  0.6122449E-01  0.2138500E-09  0.0000000E+00  0.4112379E-01
  0.1897959E+01  0.0000000E+00  0.6122449E-01  0.3606340E-09  0.0000000E+00  0.4112379E-01
  0.1938776E+01  0.0000000E+00  0.6122449E-01  0.4371286E-09  0.0000000E+00  0.4112379E-01
  0.1989796E+01  0.0000000E+00  0.6122449E-01  0.4858169E-09  0.0000000E+00  0.4112379E-01
  0.2040816E-01  0.0000000E+00  0.1020408E+00  0.3622993E-09  0.0000000E+00  0.4109115E-01
  0.6122449E-01  0.0000000E+00  0.1020408E+00  0.8939171E-09  0.0000000E+00  0.4109116E-01
  0.1020408E+00  0.0000000E+00  0.1020408E+00  0.6142108E-09  0.0000000E+00  0.4109116E-01
  0.1428571E+00  0.0000000E+00  0.1020408E+00  0.7284581E-09  0.0000000E+00  0.4109116E-01
  0.1836735E+00  0.0000000E+00  0.1020408E+00  0.4046108E-09  0.0000000E+00  0.4109116E-01
  0.2244898E+00  0.0000000E+00  0.1020408E+00 -0.5352180E-10  0.0000000E+00  0.4109116E-01
  0.2653061E+00  0.0000000E+00  0.1020408E+00 -0.1934542E-09  0.0000000E+00  0.4109116E-01
  0.3061225E+00  0.0000000E+00  0.1020408E+00 -0.9947894E-10  0.0000000E+00  0.4109116E-01
  0.3469388E+00  0.0000000E+00  0.1020408E+00 -0.7318305E-10  0.0000000E+00  0.4109116E-01
  0.3877551E+00  0.0000000E+00  0.1020408E+00 -0.1145527E-09  0.0000000E+00  0.4109116E-01
  0.4285714E+00  0.0000000E+00  0.1020408E+00 -0.8492644E-10  0.0000000E+00  0.4109116E-01
  0.4693878E+00  0.0000000E+00  0.1020408E+00 -0.6515440E-11  0.0000000E+00  0.4109116E-01
  0.5102041E+00  0.0000000E+00  0.1020408E+00  0.4429429E-10  0.0000000E+00  0.4109116E-01
  0.5510204E+00  0.0000000E+00  0.1020408E+00  0.3595949E-10  0.0000000E+00  0.4109116E-01
  0.5918368E+00  0.0000000E+00  0.1020408E+00 -0.1913610E-10  0.0000000E+00  0.4109116E-01
  0.6326531E+00  0.0000000E+00  0.1020408E+00 -0.8577237E-10  0.0000000E+00  0.4109116E-01
  0.6734694E+00  0.0000000E+00  0.1020408E+00 -0.1108206E-09  0.0000000E+00  0.4109116E-01
  0.7142857E+00  0.0000000E+00  0.1020408E+00 -0.2860138E-10  0.0000000E+00  0.4109116E-01
  0.7551020E+00  0.0000000E+00  0.1020408E+00  0.1273763E-09  0.0000000E+00  0.4109116E-01
  0.7959183E+00  0.0000000E+00  0.1020408E+00  0.3562914E-09  0.0000000E+00  0.4109116E-01
  0.8367347E+00  0.0000000E+00  0.1020408E+00  0.5303098E-09  0.0000000E+00  0.4109116E-01
  0.8775510E+00  0.0000000E+00  0.1020408E+00  0.4782460E-09  0.0000000E+00  0.4109116E-01
  0.9183673E+00  0.0000000E+00  0.1020408E+00  0.1842823E-09  0.0000000E+00  0.4109116E-01
  0.9591837E+00  0.0000000E+00  0.1020408E+00 -0.1773758E-09  0.0000000E+00  0.4109116E-01
  0.1000000E+01  0.0000000E+00  0.1020408E+00 -0.3764588E-09  0.0000000E+00  0.4109116E-01
  0.1040816E+01  0.0000000E+00  0.1020408E+00 -0.5425541E-09  0.0000000E+00  0.4109116E-01
  0.1081633E+01  0.0000000E+00  0.1020408E+00 -0.1355963E-09  0.0000000E+00  0.4109116E-01
  0.1122449E+01  0.0000000E+00  0.1020408E+00 -0.5223770E-09  0.0000000E+00  0.4109116E-01
  0.1163265E+01  0.0000000E+00  0.1020408E+00 -0.1531965E-09  0.0000000E+00  0.4109116E-01
  0.1204082E+01  0.0000000E+00  0.1020408E+00  0.4108414E-10  0.0000000E+00  0.4109116E-01
  0.1244898E+01  0.0000000E+00  0.1020408E+00  0.4455063E-09  0.0000000E+00  0.4109116E-01
  0.1285714E+01  0.0000000E+00  0.1020408E+00  0.5120418E-09  0.0000000E+00  0.4109116E-01
  0.1326531E+01  0.0000000E+00  0.1020408E+00  0.4823262E-09  0.0000000E+00  0.4109116E-01
  0.1367347E+01  0.0000000E+00  0.1020408E+00  0.1186593E-09  0.0000000E+00  0.4109116E-01
  0.1408163E+01  0.0000000E+00  0.1020408E+00 -0.1549419E-09  0.0000000E+00  0.4109116E-01
  0.1448980E+01  0.0000000E+00  0.1020408E+00 -0.1989186E-09  0.0000000E+00  0.4109116E-01
  0.1489796E+01  0.0000000E+00  0.1020408E+00 -0.1179587E-09  0.0000000E+00  0.4109116E-01
  0.1530612E+01  0.0000000E+00  0.1020408E+00 -0.3276882E-10  0.0000000E+00  0.4109116E-01
  0.1571429E+01  0.0000000E+00  0.1020408E+00  0.1158440E-10  0.0000000E+00  0.4109116E-01
  0.1612245E+01  0.0000000E+00  0.1020408E+00  0.9926176E-11  0.0000000E+00  0.4109116E-01
  0.1653061E+01  0.0000000E+00  0.1020408E+00 -0.2151673E-10  0.0000000E+00  0.4109116E-01
  0.1693878E+01  0.0000000E+00  0.1020408E+00 -0.5551409E-10  0.0000000E+00  0.4109116E-01
  0.1734694E+01  0.0000000E+00  0.1020408E+00 -0.6080856E-10  0.0000000E+00  0.4109116E-01
  0.1775510E+01  0.0000000E+00  0.1020408E+00 -0.3646543E-11  0.0000000E+00  0.4109116E-01
  0.1816326E+01  0.0000000E+00  0.1020408E+00  0.1465734E-09  0.0000000E+00  0.4109116E-01
  0.1857143E+01  0.0000000E+00  0.1020408E+00  0.3855332E-09  0.0000000E+00  0.4109116E-01
  0.1897959E+01  0.0000000E+00  0.1020408E+00  0.6239588E-09  0.0000000E+00  0.4109116E-01
  0.1938776E+01  0.0000000E+00  0.1020408E+00  0.6483762E-09  0.0000000E+00  0.4109116E-01
  0.1989796E+01  0.0000000E+00  0.1020408E+00  0.4112860E-09  0.0000000E+00  0.4109116E-01
  0.2040816E-01  0.0000000E+00  0.1428571E+00  0.2778808E-09  0.0000000E+00  0.4101714E-01
  0.6122449E-01  0.0000000E+00  0.1428571E+00  0.1066970E-08  0.0000000E+00  0.4101714E-01
  0.1020408E+00  0.0000000E+00  0.1428571E+00  0.7511342E-09  0.0000000E+00  0.4101714E-01
  0.1428571E+00  0.0000000E+00  0.1428571E+00  0.6471371E-09  0.0000000E+00  0.4101714E-01
  0.1836735E+00  0.0000000E+00  0.1428571E+00  0.4150393E-09  0.0000000E+00  0.4101714E-01
  0.2244898E+00  0.0000000E+00  0.1428571E+00  0.5956680E-12  0.0000000E+00  0.4101714E-01
  0.2653061E+00  0.0000000E+00  0.1428571E+00 -0.1899214E-09  0.0000000E+00  0.4101714E-01
  0.3061225E+00  0.0000000E+00  0.1428571E+00 -0.7827240E-10  0.0000000E+00  0.4101714E-01
  0.3469388E+00  0.0000000E+00  0.1428571E+00 -0.4526041E-11  0.0000000E+00  0.4101714E-01
  0.3877551E+00  0.0000000E+00  0.1428571E+00 -0.8216917E-10  0.0000000E+00  0.4101714E-01
  0.4285714E+00  0.0000000E+00  0.1428571E+00 -0.1021237E-09  0.0000000E+00  0.4101714E-01
  0.4693878E+00  0.0000000E+00  0.1428571E+00 -0.3454793E-10  0.0000000E+00  0.4101714E-01
  0.5102041E+00  0.0000000E+00  0.1428571E+00  0.2568069E-10  0.0000000E+00  0.4101714E-01
  0.5510204E+00  0.0000000E+00  0.1428571E+00  0.2051754E-10  0.0000000E+00  0.4101714E-01
  0.5918368E+00  0.0000000E+00  0.1428571E+00 -0.4615567E-10  0.0000000E+00  0.4101714E-01
  0.6326531E+00  0.0000000E+00  0.1428571E+00 -0.1326149E-09  0.0000000E+00  0.4101714E-01
  0.6734694E+00  0.0000000E+00  0.1428571E+00 -0.1380798E-09  0.0000000E+00  0.4101714E-01
  0.7142857E+00  0.0000000E+00  0.1428571E+00 -0.2270526E-10  0.0000000E+00  0.4101714E-01
  0.7551020E+00  0.0000000E+00  0.1428571E+00  0.2151532E-09  0.0000000E+00  0.4101714E-01
  0.7959183E+00  0.0000000E+00  0.1428571E+00  0.5144878E-09  0.0000000E+00  0.4101714E-01
  0.8367347E+00  0.0000000E+00  0.1428571E+00  0.6638592E-09  0.0000000E+00  0.4101714E-01
  0.8775510E+00  0.0000000E+00  0.1428571E+00  0.4905562E-09  0.0000000E+00  0.4101714E-01
  0.9183673E+00  0.0000000E+00  0.1428571E+00  0.1791630E-09  0.0000000E+00  0.4101714E-01
  0.9591837E+00  0.0000000E+00  0.1428571E+00 -0.2546922E-09  0.0000000E+00  0.4101714E-01
  0.1000000E+01  0.0000000E+00  0.1428571E+00 -0.4933099E-09  0.0000000E+00  0.4101714E-01
  0.1040816E+01  0.0000000E+00  0.1428571E+00 -0.7461494E-09  0.0000000E+00  0.4101714E-01
  0.1081633E+01  0.0000000E+00  0.1428571E+00 -0.6987916E-10  0.0000000E+00  0.4101714E-01
  0.1122449E+01  0.0000000E+00  0.1428571E+00 -0.5458347E-09  0.0000000E+00  0.4101714E-01
  0.1163265E+01  0.0000000E+00  0.1428571E+00 -0.9669992E-10  0.0000000E+00  0.4101714E-01
  0.1204082E+01  0.0000000E+00  0.1428571E+00  0.2208181E-10  0.0000000E+00  0.4101714E-01
  0.1244898E+01  0.0000000E+00  0.1428571E+00  0.6025971E-09  0.0000000E+00  0.4101714E-01
  0.1285714E+01  0.0000000E+00  0.1428571E+00  0.7416426E-09  0.0000000E+00  0.4101714E-01
  0.1326531E+01  0.0000000E+00  0.1428571E+00  0.4911149E-09  0.0000000E+00  0.4101714E-01
  0.1367347E+01  0.0000000E+00  0.1428571E+00  0.4128411E-10  0.0000000E+00  0.4101714E-01
  0.1408163E+01  0.0000000E+00  0.1428571E+00 -0.2394442E-09  0.0000000E+00  0.4101714E-01
  0.1448980E+01  0.0000000E+00  0.1428571E+00 -0.2364727E-09  0.0000000E+00  0.4101714E-01
  0.1489796E+01  0.0000000E+00  0.1428571E+00 -0.1300210E-09  0.0000000E+00  0.4101714E-01
  0.1530612E+01  0.0000000E+00  0.1428571E+00 -0.3406907E-10  0.0000000E+00  0.4101714E-01
  0.1571429E+01  0.0000000E+00  0.1428571E+00  0.1130324E-10  0.0000000E+00  0.4101714E-01
  0.1612245E+01  0.0000000E+00  0.1428571E+00  0.4328470E-11  0.0000000E+00  0.4101714E-01
  0.1653061E+01  0.0000000E+00  0.1428571E+00 -0.3638936E-10  0.0000000E+00  0.4101714E-01
  0.1693878E+01  0.0000000E+00  0.1428571E+00 -0.7482917E-10  0.0000000E+00  0.4101714E-01
  0.1734694E+01  0.0000000E+00  0.1428571E+00 -0.6983929E-10  0.0000000E+00  0.4101714E-01
  0.1775510E+01  0.0000000E+00  0.1428571E+00  0.1775641E-10  0.0000000E+00  0.4101714E-01
  0.1816326E+01  0.0000000E+00  0.1428571E+00  0.2162296E-09  0.0000000E+00  0.4101714E-01
  0.1857143E+01  0.0000000E+00  0.1428571E+00  0.5063001E-09  0.0000000E+00  0.4101714E-01
  0.1897959E+01  0.0000000E+00  0.1428571E+00  0.7847277E-09  0.0000000E+00  0.4101714E-01
  0.1938776E+01  0.0000000E+00  0.1428571E+00  0.7616448E-09  0.0000000E+00  0.4101714E-01
  0.1989796E+01  0.0000000E+00  0.1428571E+00  0.7287149E-10  0.0000000E+00  0.4101714E-01
  0.2040816E-01  0.0000000E+00  0.1836735E+00  0.2174715E-09  0.0000000E+00  0.4088320E-01
  0.6122449E-01  0.0000000E+00  0.1836735E+00  0.1038296E-08  0.0000000E+00  0.4088320E-01
  0.1020408E+00  0.0000000E+00  0.1836735E+00  0.7896250E-09  0.0000000E+00  0.4088320E-01
  0.1428571E+00  0.0000000E+00  0.1836735E+00  0.4126590E-09  0.0000000E+00  0.4088320E-01
  0.1836735E+00  0.0000000E+00  0.1836735E+00  0.3139820E-09  0.0000000E+00  0.4088320E-01
  0.2244898E+00  0.0000000E+00  0.1836735E+00  0.9688942E-10  0.0000000E+00  0.4088320E-01
  0.2653061E+00  0.0000000E+00  0.1836735E+00 -0.1148652E-09  0.0000000E+00  0.4088320E-01
  0.3061225E+00  0.0000000E+00  0.1836735E+00 -0.6262817E-10  0.0000000E+00  0.4088320E-01
  0.3469388E+00  0.0000000E+00  0.1836735E+00  0.7278033E-10  0.0000000E+00  0.4088320E-01
  0.3877551E+00  0.0000000E+00  0.1836735E+00 -0.4692843E-11  0.0000000E+00  0.4088320E-01
  0.4285714E+00  0.0000000E+00  0.1836735E+00 -0.8501010E-10  0.0000000E+00  0.4088320E-01
  0.4693878E+00  0.0000000E+00  0.1836735E+00 -0.5576970E-10  0.0000000E+00  0.4088320E-01
  0.5102041E+00  0.0000000E+00  0.1836735E+00 -0.3016958E-11  0.0000000E+00  0.4088320E-01
  0.5510204E+00  0.0000000E+00  0.1836735E+00 -0.6707472E-11  0.0000000E+00  0.4088320E-01
  0.5918368E+00  0.0000000E+00  0.1836735E+00 -0.7553270E-10  0.0000000E+00  0.4088320E-01
  0.6326531E+00  0.0000000E+00  0.1836735E+00 -0.1731211E-09  0.0000000E+00  0.4088320E-01
  0.6734694E+00  0.0000000E+00  0.1836735E+00 -0.1515003E-09  0.0000000E+00  0.4088320E-01
  0.7142857E+00  0.0000000E+00  0.1836735E+00  0.1079435E-11  0.0000000E+00  0.4088320E-01
  0.7551020E+00  0.0000000E+00  0.1836735E+00  0.3093012E-09  0.0000000E+00  0.4088320E-01
  0.7959183E+00  0.0000000E+00  0.1836735E+00  0.6359803E-09  0.0000000E+00  0.4088320E-01
  0.8367347E+00  0.0000000E+00  0.1836735E+00  0.6809138E-09  0.0000000E+00  0.4088320E-01
  0.8775510E+00  0.0000000E+00  0.1836735E+00  0.3536047E-09  0.0000000E+00  0.4088320E-01
  0.9183673E+00  0.0000000E+00  0.1836735E+00  0.5605760E-10  0.0000000E+00  0.4088320E-01
  0.9591837E+00  0.0000000E+00  0.1836735E+00 -0.2831781E-09  0.0000000E+00  0.4088320E-01
  0.1000000E+01  0.0000000E+00  0.1836735E+00 -0.2816613E-09  0.0000000E+00  0.4088320E-01
  0.1040816E+01  0.0000000E+00  0.1836735E+00 -0.9105817E-09  0.0000000E+00  0.4088320E-01
  0.1081633E+01  0.0000000E+00  0.1836735E+00 -0.1076235E-09  0.0000000E+00  0.4088320E-01
  0.1122449E+01  0.0000000E+00  0.1836735E+00 -0.5636198E-09  0.0000000E+00  0.4088320E-01
  0.1163265E+01  0.0000000E+00  0.1836735E+00  0.1328799E-09  0.0000000E+00  0.4088320E-01
  0.1204082E+01  0.0000000E+00  0.1836735E+00  0.1456869E-09  0.0000000E+00  0.4088320E-01
  0.1244898E+01  0.0000000E+00  0.1836735E+00  0.6039253E-09  0.0000000E+00  0.4088320E-01
  0.1285714E+01  0.0000000E+00  0.1836735E+00  0.7501841E-09  0.0000000E+00  0.4088320E-01
  0.1326531E+01  0.0000000E+00  0.1836735E+00  0.4524833E-09  0.0000000E+00  0.4088320E-01
  0.1367347E+01  0.0000000E+00  0.1836735E+00 -0.1967021E-10  0.0000000E+00  0.4088320E-01
  0.1408163E+01  0.0000000E+00  0.1836735E+00 -0.2907969E-09  0.0000000E+00  0.4088320E-01
  0.1448980E+01  0.0000000E+00  0.1836735E+00 -0.2567900E-09  0.0000000E+00  0.4088320E-01
  0.1489796E+01  0.0000000E+00  0.1836735E+00 -0.1330913E-09  0.0000000E+00  0.4088320E-01
  0.1530612E+01  0.0000000E+00  0.1836735E+00 -0.3674544E-10  0.0000000E+00  0.4088320E-01
  0.1571429E+01  0.0000000E+00  0.1836735E+00  0.4730602E-11  0.0000000E+00  0.4088320E-01
  0.1612245E+01  0.0000000E+00  0.1836735E+00 -0.3030920E-11  0.0000000E+00  0.4088320E-01
  0.1653061E+01  0.0000000E+00  0.1836735E+00 -0.4315370E-10  0.0000000E+00  0.4088320E-01
  0.1693878E+01  0.0000000E+00  0.1836735E+00 -0.7305689E-10  0.0000000E+00  0.4088320E-01
  0.1734694E+01  0.0000000E+00  0.1836735E+00 -0.4538302E-10  0.0000000E+00  0.4088320E-01
  0.1775510E+01  0.0000000E+00  0.1836735E+00  0.7414453E-10  0.0000000E+00  0.4088320E-01
  0.1816326E+01  0.0000000E+00  0.1836735E+00  0.2904052E-09  0.0000000E+00  0.4088320E-01
  0.1857143E+01  0.0000000E+00  0.1836735E+00  0.5376564E-09  0.0000000E+00  0.4088320E-01
  0.1897959E+01  0.0000000E+00  0.1836735E+00  0.7654302E-09  0.0000000E+00  0.4088320E-01
  0.1938776E+01  0.0000000E+00  0.1836735E+00  0.7906242E-09  0.0000000E+00  0.4088320E-01
  0.1989796E+01  0.0000000E+00  0.1836735E+00 -0.2922756E-09  0.0000000E+00  0.4088320E-01
  0.2040816E-01  0.0000000E+00  0.2244898E+00  0.2040429E-09  0.0000000E+00  0.4066782E-01
  0.6122449E-01  0.0000000E+00  0.2244898E+00  0.8566583E-09  0.0000000E+00  0.4066782E-01
  0.1020408E+00  0.0000000E+00  0.2244898E+00  0.7476595E-09  0.0000000E+00  0.4066782E-01
  0.1428571E+00  0.0000000E+00  0.2244898E+00  0.1060665E-09  0.0000000E+00  0.4066782E-01
  0.1836735E+00  0.0000000E+00  0.2244898E+00  0.6460271E-10  0.0000000E+00  0.4066782E-01
  0.2244898E+00  0.0000000E+00  0.2244898E+00  0.1745899E-09  0.0000000E+00  0.4066782E-01
  0.2653061E+00  0.0000000E+00  0.2244898E+00  0.7901313E-10  0.0000000E+00  0.4066782E-01
  0.3061225E+00  0.0000000E+00  0.2244898E+00 -0.2358912E-10  0.0000000E+00  0.4066782E-01
  0.3469388E+00  0.0000000E+00  0.2244898E+00  0.1075026E-09  0.0000000E+00  0.4066782E-01
  0.3877551E+00  0.0000000E+00  0.2244898E+00  0.7441428E-10  0.0000000E+00  0.4066782E-01
  0.4285714E+00  0.0000000E+00  0.2244898E+00 -0.3954599E-10  0.0000000E+00  0.4066782E-01
  0.4693878E+00  0.0000000E+00  0.2244898E+00 -0.5603282E-10  0.0000000E+00  0.4066782E-01
  0.5102041E+00  0.0000000E+00  0.2244898E+00 -0.2558946E-10  0.0000000E+00  0.4066782E-01
  0.5510204E+00  0.0000000E+00  0.2244898E+00 -0.3448507E-10  0.0000000E+00  0.4066782E-01
  0.5918368E+00  0.0000000E+00  0.2244898E+00 -0.9585317E-10  0.0000000E+00  0.4066782E-01
  0.6326531E+00  0.0000000E+00  0.2244898E+00 -0.1950260E-09  0.0000000E+00  0.4066782E-01
  0.6734694E+00  0.0000000E+00  0.2244898E+00 -0.1591380E-09  0.0000000E+00  0.4066782E-01
  0.7142857E+00  0.0000000E+00  0.2244898E+00  0.3788807E-10  0.0000000E+00  0.4066782E-01
  0.7551020E+00  0.0000000E+00  0.2244898E+00  0.3765427E-09  0.0000000E+00  0.4066782E-01
  0.7959183E+00  0.0000000E+00  0.2244898E+00  0.6660888E-09  0.0000000E+00  0.4066782E-01
  0.8367347E+00  0.0000000E+00  0.2244898E+00  0.6342743E-09  0.0000000E+00  0.4066782E-01
  0.8775510E+00  0.0000000E+00  0.2244898E+00  0.2187467E-09  0.0000000E+00  0.4066782E-01
  0.9183673E+00  0.0000000E+00  0.2244898E+00 -0.1486887E-09  0.0000000E+00  0.4066782E-01
  0.9591837E+00  0.0000000E+00  0.2244898E+00 -0.4155899E-09  0.0000000E+00  0.4066782E-01
  0.1000000E+01  0.0000000E+00  0.2244898E+00  0.1203019E-09  0.0000000E+00  0.4066782E-01
  0.1040816E+01  0.0000000E+00  0.2244898E+00 -0.8496452E-09  0.0000000E+00  0.4066782E-01
  0.1081633E+01  0.0000000E+00  0.2244898E+00 -0.1422202E-09  0.0000000E+00  0.4066782E-01
  0.1122449E+01  0.0000000E+00  0.2244898E+00 -0.6150642E-09  0.0000000E+00  0.4066782E-01
  0.1163265E+01  0.0000000E+00  0.2244898E+00  0.2705743E-09  0.0000000E+00  0.4066782E-01
  0.1204082E+01  0.0000000E+00  0.2244898E+00  0.4490008E-09  0.0000000E+00  0.4066782E-01
  0.1244898E+01  0.0000000E+00  0.2244898E+00  0.5320421E-09  0.0000000E+00  0.4066782E-01
  0.1285714E+01  0.0000000E+00  0.2244898E+00  0.5364359E-09  0.0000000E+00  0.4066782E-01
  0.1326531E+01  0.0000000E+00  0.2244898E+00  0.3527835E-09  0.0000000E+00  0.4066782E-01
  0.1367347E+01  0.0000000E+00  0.2244898E+00 -0.4015630E-10  0.0000000E+00  0.4066782E-01
  0.1408163E+01  0.0000000E+00  0.2244898E+00 -0.2937581E-09  0.0000000E+00  0.4066782E-01
  0.1448980E+01  0.0000000E+00  0.2244898E+00 -0.2512487E-09  0.0000000E+00  0.4066782E-01
  0.1489796E+01  0.0000000E+00  0.2244898E+00 -0.1260927E-09  0.0000000E+00  0.4066782E-01
  0.1530612E+01  0.0000000E+00  0.2244898E+00 -0.4048154E-10  0.0000000E+00  0.4066782E-01
  0.1571429E+01  0.0000000E+00  0.2244898E+00 -0.6901925E-11  0.0000000E+00  0.4066782E-01
  0.1612245E+01  0.0000000E+00  0.2244898E+00 -0.6418543E-11  0.0000000E+00  0.4066782E-01
  0.1653061E+01  0.0000000E+00  0.2244898E+00 -0.3159056E-10  0.0000000E+00  0.4066782E-01
  0.1693878E+01  0.0000000E+00  0.2244898E+00 -0.3847930E-10  0.0000000E+00  0.4066782E-01
  0.1734694E+01  0.0000000E+00  0.2244898E+00  0.2037838E-10  0.0000000E+00  0.4066782E-01
  0.1775510E+01  0.0000000E+00  0.2244898E+00  0.1640969E-09  0.0000000E+00  0.4066782E-01
  0.1816326E+01  0.0000000E+00  0.2244898E+00  0.3626471E-09  0.0000000E+00  0.4066782E-01
  0.1857143E+01  0.0000000E+00  0.2244898E+00  0.4661159E-09  0.0000000E+00  0.4066782E-01
  0.1897959E+01  0.0000000E+00  0.2244898E+00  0.4972186E-09  0.0000000E+00  0.4066782E-01
  0.1938776E+01  0.0000000E+00  0.2244898E+00  0.6747043E-09  0.0000000E+00  0.4066782E-01
  0.1989796E+01  0.0000000E+00  0.2244898E+00 -0.4885904E-09  0.0000000E+00  0.4066782E-01
  0.2040816E-01  0.0000000E+00  0.2653061E+00  0.2012592E-09  0.0000000E+00  0.4034563E-01
  0.6122449E-01  0.0000000E+00  0.2653061E+00  0.4779580E-09  0.0000000E+00  0.4034563E-01
  0.1020408E+00  0.0000000E+00  0.2653061E+00  0.5688687E-09  0.0000000E+00  0.4034563E-01
  0.1428571E+00  0.0000000E+00  0.2653061E+00 -0.1123425E-09  0.0000000E+00  0.4034563E-01
  0.1836735E+00  0.0000000E+00  0.2653061E+00 -0.2159129E-09  0.0000000E+00  0.4034563E-01
  0.2244898E+00  0.0000000E+00  0.2653061E+00  0.1286322E-09  0.0000000E+00  0.4034563E-01
  0.2653061E+00  0.0000000E+00  0.2653061E+00  0.3184727E-09  0.0000000E+00  0.4034563E-01
  0.3061225E+00  0.0000000E+00  0.2653061E+00  0.1134806E-09  0.0000000E+00  0.4034563E-01
  0.3469388E+00  0.0000000E+00  0.2653061E+00  0.1129920E-09  0.0000000E+00  0.4034563E-01
  0.3877551E+00  0.0000000E+00  0.2653061E+00  0.1157757E-09  0.0000000E+00  0.4034563E-01
  0.4285714E+00  0.0000000E+00  0.2653061E+00  0.6840862E-11  0.0000000E+00  0.4034563E-01
  0.4693878E+00  0.0000000E+00  0.2653061E+00 -0.3832160E-10  0.0000000E+00  0.4034563E-01
  0.5102041E+00  0.0000000E+00  0.2653061E+00 -0.3256040E-10  0.0000000E+00  0.4034563E-01
  0.5510204E+00  0.0000000E+00  0.2653061E+00 -0.5555922E-10  0.0000000E+00  0.4034563E-01
  0.5918368E+00  0.0000000E+00  0.2653061E+00 -0.9900906E-10  0.0000000E+00  0.4034563E-01
  0.6326531E+00  0.0000000E+00  0.2653061E+00 -0.1917069E-09  0.0000000E+00  0.4034563E-01
  0.6734694E+00  0.0000000E+00  0.2653061E+00 -0.1528457E-09  0.0000000E+00  0.4034563E-01
  0.7142857E+00  0.0000000E+00  0.2653061E+00  0.8450630E-10  0.0000000E+00  0.4034563E-01
  0.7551020E+00  0.0000000E+00  0.2653061E+00  0.4081936E-09  0.0000000E+00  0.4034563E-01
  0.7959183E+00  0.0000000E+00  0.2653061E+00  0.5325285E-09  0.0000000E+00  0.4034563E-01
  0.8367347E+00  0.0000000E+00  0.2653061E+00  0.4631582E-09  0.0000000E+00  0.4034563E-01
  0.8775510E+00  0.0000000E+00  0.2653061E+00  0.2327144E-09  0.0000000E+00  0.4034563E-01
  0.9183673E+00  0.0000000E+00  0.2653061E+00 -0.1337682E-09  0.0000000E+00  0.4034563E-01
  0.9591837E+00  0.0000000E+00  0.2653061E+00 -0.7131103E-09  0.0000000E+00  0.4034563E-01
  0.1000000E+01  0.0000000E+00  0.2653061E+00  0.4135681E-09  0.0000000E+00  0.4034563E-01
  0.1040816E+01  0.0000000E+00  0.2653061E+00 -0.6762683E-09  0.0000000E+00  0.4034563E-01
  0.1081633E+01  0.0000000E+00  0.2653061E+00  0.1456348E-10  0.0000000E+00  0.4034563E-01
  0.1122449E+01  0.0000000E+00  0.2653061E+00 -0.5276144E-09  0.0000000E+00  0.4034563E-01
  0.1163265E+01  0.0000000E+00  0.2653061E+00  0.8187446E-10  0.0000000E+00  0.4034563E-01
  0.1204082E+01  0.0000000E+00  0.2653061E+00  0.6772245E-09  0.0000000E+00  0.4034563E-01
  0.1244898E+01  0.0000000E+00  0.2653061E+00  0.5236065E-09  0.0000000E+00  0.4034563E-01
  0.1285714E+01  0.0000000E+00  0.2653061E+00  0.2779461E-09  0.0000000E+00  0.4034563E-01
  0.1326531E+01  0.0000000E+00  0.2653061E+00  0.2062763E-09  0.0000000E+00  0.4034563E-01