title = "dataset feddes"
variables = "x", "y", "z", "vx", "vy", "vz"
zone t = "velocities, solution time =  4.000E+01 days        " i =   49, j =   49, k =    1,  f=point
  0.2040816E-01  0.0000000E+00  0.2040816E-01  0.4058086E-06  0.0000000E+00 -0.8542982E-01
  0.6122449E-01  0.0000000E+00  0.2040816E-01  0.1211256E-05  0.0000000E+00 -0.8542799E-01
  0.1020408E+00  0.0000000E+00  0.2040816E-01  0.1998334E-05  0.0000000E+00 -0.8542434E-01
  0.1428571E+00  0.0000000E+00  0.2040816E-01  0.2752233E-05  0.0000000E+00 -0.8541894E-01
  0.1836735E+00  0.0000000E+00  0.2040816E-01  0.3457704E-05  0.0000000E+00 -0.8541189E-01
  0.2244898E+00  0.0000000E+00  0.2040816E-01  0.4105564E-05  0.0000000E+00 -0.8540329E-01
  0.2653061E+00  0.0000000E+00  0.2040816E-01  0.4685903E-05  0.0000000E+00 -0.8539331E-01
  0.3061225E+00  0.0000000E+00  0.2040816E-01  0.5185703E-05  0.0000000E+00 -0.8538209E-01
  0.3469388E+00  0.0000000E+00  0.2040816E-01  0.5595260E-05  0.0000000E+00 -0.8536985E-01
  0.3877551E+00  0.0000000E+00  0.2040816E-01  0.5907491E-05  0.0000000E+00 -0.8535678E-01
  0.4285714E+00  0.0000000E+00  0.2040816E-01  0.6116280E-05  0.0000000E+00 -0.8534312E-01
  0.4693878E+00  0.0000000E+00  0.2040816E-01  0.6216522E-05  0.0000000E+00 -0.8532911E-01
  0.5102041E+00  0.0000000E+00  0.2040816E-01  0.6204787E-05  0.0000000E+00 -0.8531500E-01
  0.5510204E+00  0.0000000E+00  0.2040816E-01  0.6079704E-05  0.0000000E+00 -0.8530105E-01
  0.5918368E+00  0.0000000E+00  0.2040816E-01  0.5842022E-05  0.0000000E+00 -0.8528750E-01
  0.6326531E+00  0.0000000E+00  0.2040816E-01  0.5494561E-05  0.0000000E+00 -0.8527463E-01
  0.6734694E+00  0.0000000E+00  0.2040816E-01  0.5042155E-05  0.0000000E+00 -0.8526266E-01
  0.7142857E+00  0.0000000E+00  0.2040816E-01  0.4491626E-05  0.0000000E+00 -0.8525183E-01
  0.7551020E+00  0.0000000E+00  0.2040816E-01  0.3851737E-05  0.0000000E+00 -0.8524235E-01
  0.7959183E+00  0.0000000E+00  0.2040816E-01  0.3133090E-05  0.0000000E+00 -0.8523442E-01
  0.8367347E+00  0.0000000E+00  0.2040816E-01  0.2347916E-05  0.0000000E+00 -0.8522820E-01
  0.8775510E+00  0.0000000E+00  0.2040816E-01  0.1509759E-05  0.0000000E+00 -0.8522381E-01
  0.9183673E+00  0.0000000E+00  0.2040816E-01  0.6331493E-06  0.0000000E+00 -0.8522138E-01
  0.9591837E+00  0.0000000E+00  0.2040816E-01 -0.2653106E-06  0.0000000E+00 -0.8522096E-01
  0.1000000E+01  0.0000000E+00  0.2040816E-01 -0.1170113E-05  0.0000000E+00 -0.8522259E-01
  0.1040816E+01  0.0000000E+00  0.2040816E-01 -0.2066844E-05  0.0000000E+00 -0.8522627E-01
  0.1081633E+01  0.0000000E+00  0.2040816E-01 -0.2938286E-05  0.0000000E+00 -0.8523195E-01
  0.1122449E+01  0.0000000E+00  0.2040816E-01 -0.3766170E-05  0.0000000E+00 -0.8523957E-01
  0.1163265E+01  0.0000000E+00  0.2040816E-01 -0.4539231E-05  0.0000000E+00 -0.8524900E-01
  0.1204082E+01  0.0000000E+00  0.2040816E-01 -0.5246029E-05  0.0000000E+00 -0.8526012E-01
  0.1244898E+01  0.0000000E+00  0.2040816E-01 -0.5871592E-05  0.0000000E+00 -0.8527274E-01
  0.1285714E+01  0.0000000E+00  0.2040816E-01 -0.6405255E-05  0.0000000E+00 -0.8528669E-01
  0.1326531E+01  0.0000000E+00  0.2040816E-01 -0.6840025E-05  0.0000000E+00 -0.8530173E-01
  0.1367347E+01  0.0000000E+00  0.2040816E-01 -0.7170009E-05  0.0000000E+00 -0.8531765E-01
  0.1408163E+01  0.0000000E+00  0.2040816E-01 -0.7390356E-05  0.0000000E+00 -0.8533419E-01
  0.1448980E+01  0.0000000E+00  0.2040816E-01 -0.7498066E-05  0.0000000E+00 -0.8535110E-01
  0.1489796E+01  0.0000000E+00  0.2040816E-01 -0.7492365E-05  0.0000000E+00 -0.8536813E-01
  0.1530612E+01  0.0000000E+00  0.2040816E-01 -0.7374569E-05  0.0000000E+00 -0.8538502E-01
  0.1571429E+01  0.0000000E+00  0.2040816E-01 -0.7147733E-05  0.0000000E+00 -0.8540152E-01
  0.1612245E+01  0.0000000E+00  0.2040816E-01 -0.6816347E-05  0.0000000E+00 -0.8541738E-01
  0.1653061E+01  0.0000000E+00  0.2040816E-01 -0.6386228E-05  0.0000000E+00 -0.8543238E-01
  0.1693878E+01  0.0000000E+00  0.2040816E-01 -0.5864488E-05  0.0000000E+00 -0.8544630E-01
  0.1734694E+01  0.0000000E+00  0.2040816E-01 -0.5259429E-05  0.0000000E+00 -0.8545894E-01
  0.1775510E+01  0.0000000E+00  0.2040816E-01 -0.4580306E-05  0.0000000E+00 -0.8547012E-01
  0.1816326E+01  0.0000000E+00  0.2040816E-01 -0.3837133E-05  0.0000000E+00 -0.8547968E-01
  0.1857143E+01  0.0000000E+00  0.2040816E-01 -0.3040626E-05  0.0000000E+00 -0.8548750E-01
  0.1897959E+01  0.0000000E+00  0.2040816E-01 -0.2202137E-05  0.0000000E+00 -0.8549345E-01
  0.1938776E+01  0.0000000E+00  0.2040816E-01 -0.1333416E-05  0.0000000E+00 -0.8549747E-01
  0.1989796E+01  0.0000000E+00  0.2040816E-01 -0.4463838E-06  0.0000000E+00 -0.8549949E-01
  0.2040816E-01  0.0000000E+00  0.6122449E-01  0.1113241E-05  0.0000000E+00 -0.8543144E-01
  0.6122449E-01  0.0000000E+00  0.6122449E-01  0.3322327E-05  0.0000000E+00 -0.8542957E-01
  0.1020408E+00  0.0000000E+00  0.6122449E-01  0.5479047E-05  0.0000000E+00 -0.8542587E-01
  0.1428571E+00  0.0000000E+00  0.6122449E-01  0.7545247E-05  0.0000000E+00 -0.8542039E-01
  0.1836735E+00  0.0000000E+00  0.6122449E-01  0.9481188E-05  0.0000000E+00 -0.8541323E-01
  0.2244898E+00  0.0000000E+00  0.6122449E-01  0.1125870E-04  0.0000000E+00 -0.8540451E-01
  0.2653061E+00  0.0000000E+00  0.6122449E-01  0.1284988E-04  0.0000000E+00 -0.8539438E-01
  0.3061225E+00  0.0000000E+00  0.6122449E-01  0.1422075E-04  0.0000000E+00 -0.8538299E-01
  0.3469388E+00  0.0000000E+00  0.6122449E-01  0.1534498E-04  0.0000000E+00 -0.8537056E-01
  0.3877551E+00  0.0000000E+00  0.6122449E-01  0.1620257E-04  0.0000000E+00 -0.8535729E-01
  0.4285714E+00  0.0000000E+00  0.6122449E-01  0.1677644E-04  0.0000000E+00 -0.8534342E-01
  0.4693878E+00  0.0000000E+00  0.6122449E-01  0.1705260E-04  0.0000000E+00 -0.8532919E-01
  0.5102041E+00  0.0000000E+00  0.6122449E-01  0.1702169E-04  0.0000000E+00 -0.8531485E-01
  0.5510204E+00  0.0000000E+00  0.6122449E-01  0.1667994E-04  0.0000000E+00 -0.8530067E-01
  0.5918368E+00  0.0000000E+00  0.6122449E-01  0.1602934E-04  0.0000000E+00 -0.8528691E-01
  0.6326531E+00  0.0000000E+00  0.6122449E-01  0.1507753E-04  0.0000000E+00 -0.8527382E-01
  0.6734694E+00  0.0000000E+00  0.6122449E-01  0.1383771E-04  0.0000000E+00 -0.8526165E-01
  0.7142857E+00  0.0000000E+00  0.6122449E-01  0.1232854E-04  0.0000000E+00 -0.8525063E-01
  0.7551020E+00  0.0000000E+00  0.6122449E-01  0.1057407E-04  0.0000000E+00 -0.8524098E-01
  0.7959183E+00  0.0000000E+00  0.6122449E-01  0.8603392E-05  0.0000000E+00 -0.8523291E-01
  0.8367347E+00  0.0000000E+00  0.6122449E-01  0.6450031E-05  0.0000000E+00 -0.8522656E-01
  0.8775510E+00  0.0000000E+00  0.6122449E-01  0.4151049E-05  0.0000000E+00 -0.8522209E-01
  0.9183673E+00  0.0000000E+00  0.6122449E-01  0.1747262E-05  0.0000000E+00 -0.8521959E-01
  0.9591837E+00  0.0000000E+00  0.6122449E-01 -0.7177937E-06  0.0000000E+00 -0.8521915E-01
  0.1000000E+01  0.0000000E+00  0.6122449E-01 -0.3200706E-05  0.0000000E+00 -0.8522078E-01
  0.1040816E+01  0.0000000E+00  0.6122449E-01 -0.5659011E-05  0.0000000E+00 -0.8522449E-01
  0.1081633E+01  0.0000000E+00  0.6122449E-01 -0.8048078E-05  0.0000000E+00 -0.8523024E-01
  0.1122449E+01  0.0000000E+00  0.6122449E-01 -0.1032014E-04  0.0000000E+00 -0.8523795E-01
  0.1163265E+01  0.0000000E+00  0.6122449E-01 -0.1244082E-04  0.0000000E+00 -0.8524751E-01
  0.1204082E+01  0.0000000E+00  0.6122449E-01 -0.1437794E-04  0.0000000E+00 -0.8525878E-01
  0.1244898E+01  0.0000000E+00  0.6122449E-01 -0.1609258E-04  0.0000000E+00 -0.8527158E-01
  0.1285714E+01  0.0000000E+00  0.6122449E-01 -0.1755562E-04  0.0000000E+00 -0.8528571E-01
  0.1326531E+01  0.0000000E+00  0.6122449E-01 -0.1874721E-04  0.0000000E+00 -0.8530096E-01
  0.1367347E+01  0.0000000E+00  0.6122449E-01 -0.1965106E-04  0.0000000E+00 -0.8531709E-01
  0.1408163E+01  0.0000000E+00  0.6122449E-01 -0.2025412E-04  0.0000000E+00 -0.8533385E-01
  0.1448980E+01  0.0000000E+00  0.6122449E-01 -0.2054842E-04  0.0000000E+00 -0.8535099E-01
  0.1489796E+01  0.0000000E+00  0.6122449E-01 -0.2053189E-04  0.0000000E+00 -0.8536824E-01
  0.1530612E+01  0.0000000E+00  0.6122449E-01 -0.2020810E-04  0.0000000E+00 -0.8538535E-01
  0.1571429E+01  0.0000000E+00  0.6122449E-01 -0.1958547E-04  0.0000000E+00 -0.8540207E-01
  0.1612245E+01  0.0000000E+00  0.6122449E-01 -0.1867647E-04  0.0000000E+00 -0.8541813E-01
  0.1653061E+01  0.0000000E+00  0.6122449E-01 -0.1749716E-04  0.0000000E+00 -0.8543332E-01
  0.1693878E+01  0.0000000E+00  0.6122449E-01 -0.1606698E-04  0.0000000E+00 -0.8544742E-01
  0.1734694E+01  0.0000000E+00  0.6122449E-01 -0.1440862E-04  0.0000000E+00 -0.8546021E-01
  0.1775510E+01  0.0000000E+00  0.6122449E-01 -0.1254752E-04  0.0000000E+00 -0.8547153E-01
  0.1816326E+01  0.0000000E+00  0.6122449E-01 -0.1051127E-04  0.0000000E+00 -0.8548121E-01
  0.1857143E+01  0.0000000E+00  0.6122449E-01 -0.8329205E-05  0.0000000E+00 -0.8548912E-01
  0.1897959E+01  0.0000000E+00  0.6122449E-01 -0.6032223E-05  0.0000000E+00 -0.8549515E-01
  0.1938776E+01  0.0000000E+00  0.6122449E-01 -0.3652364E-05  0.0000000E+00 -0.8549922E-01
  0.1989796E+01  0.0000000E+00  0.6122449E-01 -0.1222799E-05  0.0000000E+00 -0.8550126E-01
  0.2040816E-01  0.0000000E+00  0.1020408E+00  0.1673077E-05  0.0000000E+00 -0.8543423E-01
  0.6122449E-01  0.0000000E+00  0.1020408E+00  0.4993493E-05  0.0000000E+00 -0.8543232E-01
  0.1020408E+00  0.0000000E+00  0.1020408E+00  0.8233134E-05  0.0000000E+00 -0.8542852E-01
  0.1428571E+00  0.0000000E+00  0.1020408E+00  0.1133708E-04  0.0000000E+00 -0.8542291E-01
  0.1836735E+00  0.0000000E+00  0.1020408E+00  0.1424886E-04  0.0000000E+00 -0.8541557E-01
  0.2244898E+00  0.0000000E+00  0.1020408E+00  0.1692238E-04  0.0000000E+00 -0.8540663E-01
  0.2653061E+00  0.0000000E+00  0.1020408E+00  0.1931447E-04  0.0000000E+00 -0.8539623E-01
  0.3061225E+00  0.0000000E+00  0.1020408E+00  0.2137664E-04  0.0000000E+00 -0.8538455E-01
  0.3469388E+00  0.0000000E+00  0.1020408E+00  0.2306965E-04  0.0000000E+00 -0.8537179E-01
  0.3877551E+00  0.0000000E+00  0.1020408E+00  0.2436253E-04  0.0000000E+00 -0.8535818E-01
  0.4285714E+00  0.0000000E+00  0.1020408E+00  0.2522902E-04  0.0000000E+00 -0.8534393E-01
  0.4693878E+00  0.0000000E+00  0.1020408E+00  0.2564803E-04  0.0000000E+00 -0.8532932E-01
  0.5102041E+00  0.0000000E+00  0.1020408E+00  0.2560552E-04  0.0000000E+00 -0.8531459E-01
  0.5510204E+00  0.0000000E+00  0.1020408E+00  0.2509570E-04  0.0000000E+00 -0.8530002E-01
  0.5918368E+00  0.0000000E+00  0.1020408E+00  0.2412135E-04  0.0000000E+00 -0.8528586E-01
  0.6326531E+00  0.0000000E+00  0.1020408E+00  0.2269374E-04  0.0000000E+00 -0.8527240E-01
  0.6734694E+00  0.0000000E+00  0.1020408E+00  0.2083251E-04  0.0000000E+00 -0.8525987E-01
  0.7142857E+00  0.0000000E+00  0.1020408E+00  0.1856563E-04  0.0000000E+00 -0.8524853E-01
  0.7551020E+00  0.0000000E+00  0.1020408E+00  0.1592925E-04  0.0000000E+00 -0.8523859E-01
  0.7959183E+00  0.0000000E+00  0.1020408E+00  0.1296717E-04  0.0000000E+00 -0.8523026E-01
  0.8367347E+00  0.0000000E+00  0.1020408E+00  0.9729787E-05  0.0000000E+00 -0.8522371E-01
  0.8775510E+00  0.0000000E+00  0.1020408E+00  0.6272575E-05  0.0000000E+00 -0.8521907E-01
  0.9183673E+00  0.0000000E+00  0.1020408E+00  0.2658058E-05  0.0000000E+00 -0.8521647E-01
  0.9591837E+00  0.0000000E+00  0.1020408E+00 -0.1049411E-05  0.0000000E+00 -0.8521598E-01
  0.1000000E+01  0.0000000E+00  0.1020408E+00 -0.4784612E-05  0.0000000E+00 -0.8521762E-01
  0.1040816E+01  0.0000000E+00  0.1020408E+00 -0.8480311E-05  0.0000000E+00 -0.8522139E-01
  0.1081633E+01  0.0000000E+00  0.1020408E+00 -0.1207134E-04  0.0000000E+00 -0.8522725E-01
  0.1122449E+01  0.0000000E+00  0.1020408E+00 -0.1548938E-04  0.0000000E+00 -0.8523513E-01
  0.1163265E+01  0.0000000E+00  0.1020408E+00 -0.1867818E-04  0.0000000E+00 -0.8524491E-01
  0.1204082E+01  0.0000000E+00  0.1020408E+00 -0.2158788E-04  0.0000000E+00 -0.8525643E-01
  0.1244898E+01  0.0000000E+00  0.1020408E+00 -0.2416337E-04  0.0000000E+00 -0.8526953E-01
  0.1285714E+01  0.0000000E+00  0.1020408E+00 -0.2636096E-04  0.0000000E+00 -0.8528399E-01
  0.1326531E+01  0.0000000E+00  0.1020408E+00 -0.2814979E-04  0.0000000E+00 -0.8529960E-01
  0.1367347E+01  0.0000000E+00  0.1020408E+00 -0.2950521E-04  0.0000000E+00 -0.8531611E-01
  0.1408163E+01  0.0000000E+00  0.1020408E+00 -0.3040813E-04  0.0000000E+00 -0.8533326E-01
  0.1448980E+01  0.0000000E+00  0.1020408E+00 -0.3084718E-04  0.0000000E+00 -0.8535079E-01
  0.1489796E+01  0.0000000E+00  0.1020408E+00 -0.3081955E-04  0.0000000E+00 -0.8536844E-01
  0.1530612E+01  0.0000000E+00  0.1020408E+00 -0.3033056E-04  0.0000000E+00 -0.8538593E-01
  0.1571429E+01  0.0000000E+00  0.1020408E+00 -0.2939293E-04  0.0000000E+00 -0.8540302E-01
  0.1612245E+01  0.0000000E+00  0.1020408E+00 -0.2802573E-04  0.0000000E+00 -0.8541944E-01
  0.1653061E+01  0.0000000E+00  0.1020408E+00 -0.2625346E-04  0.0000000E+00 -0.8543496E-01
  0.1693878E+01  0.0000000E+00  0.1020408E+00 -0.2410540E-04  0.0000000E+00 -0.8544936E-01
  0.1734694E+01  0.0000000E+00  0.1020408E+00 -0.2161545E-04  0.0000000E+00 -0.8546243E-01
  0.1775510E+01  0.0000000E+00  0.1020408E+00 -0.1882183E-04  0.0000000E+00 -0.8547398E-01
  0.1816326E+01  0.0000000E+00  0.1020408E+00 -0.1576618E-04  0.0000000E+00 -0.8548387E-01
  0.1857143E+01  0.0000000E+00  0.1020408E+00 -0.1249263E-04  0.0000000E+00 -0.8549194E-01
  0.1897959E+01  0.0000000E+00  0.1020408E+00 -0.9047219E-05  0.0000000E+00 -0.8549810E-01
  0.1938776E+01  0.0000000E+00  0.1020408E+00 -0.5477569E-05  0.0000000E+00 -0.8550225E-01
  0.1989796E+01  0.0000000E+00  0.1020408E+00 -0.1833936E-05  0.0000000E+00 -0.8550434E-01
  0.2040816E-01  0.0000000E+00  0.1428571E+00  0.2164252E-05  0.0000000E+00 -0.8543804E-01
  0.6122449E-01  0.0000000E+00  0.1428571E+00  0.6460221E-05  0.0000000E+00 -0.8543606E-01
  0.1020408E+00  0.0000000E+00  0.1428571E+00  0.1065163E-04  0.0000000E+00 -0.8543214E-01
  0.1428571E+00  0.0000000E+00  0.1428571E+00  0.1466767E-04  0.0000000E+00 -0.8542634E-01
  0.1836735E+00  0.0000000E+00  0.1428571E+00  0.1843750E-04  0.0000000E+00 -0.8541876E-01
  0.2244898E+00  0.0000000E+00  0.1428571E+00  0.2189990E-04  0.0000000E+00 -0.8540951E-01
  0.2653061E+00  0.0000000E+00  0.1428571E+00  0.2499809E-04  0.0000000E+00 -0.8539876E-01
  0.3061225E+00  0.0000000E+00  0.1428571E+00  0.2767098E-04  0.0000000E+00 -0.8538668E-01
  0.3469388E+00  0.0000000E+00  0.1428571E+00  0.2986796E-04  0.0000000E+00 -0.8537348E-01
  0.3877551E+00  0.0000000E+00  0.1428571E+00  0.3154811E-04  0.0000000E+00 -0.8535938E-01
  0.4285714E+00  0.0000000E+00  0.1428571E+00  0.3267687E-04  0.0000000E+00 -0.8534463E-01
  0.4693878E+00  0.0000000E+00  0.1428571E+00  0.3322670E-04  0.0000000E+00 -0.8532949E-01
  0.5102041E+00  0.0000000E+00  0.1428571E+00  0.3317923E-04  0.0000000E+00 -0.8531423E-01
  0.5510204E+00  0.0000000E+00  0.1428571E+00  0.3252669E-04  0.0000000E+00 -0.8529912E-01
  0.5918368E+00  0.0000000E+00  0.1428571E+00  0.3127228E-04  0.0000000E+00 -0.8528443E-01
  0.6326531E+00  0.0000000E+00  0.1428571E+00  0.2943020E-04  0.0000000E+00 -0.8527045E-01
  0.6734694E+00  0.0000000E+00  0.1428571E+00  0.2702555E-04  0.0000000E+00 -0.8525744E-01
  0.7142857E+00  0.0000000E+00  0.1428571E+00  0.2409440E-04  0.0000000E+00 -0.8524565E-01
  0.7551020E+00  0.0000000E+00  0.1428571E+00  0.2068352E-04  0.0000000E+00 -0.8523531E-01
  0.7959183E+00  0.0000000E+00  0.1428571E+00  0.1684961E-04  0.0000000E+00 -0.8522663E-01
  0.8367347E+00  0.0000000E+00  0.1428571E+00  0.1265786E-04  0.0000000E+00 -0.8521979E-01
  0.8775510E+00  0.0000000E+00  0.1428571E+00  0.8180553E-05  0.0000000E+00 -0.8521494E-01
  0.9183673E+00  0.0000000E+00  0.1428571E+00  0.3498469E-05  0.0000000E+00 -0.8521220E-01
  0.9591837E+00  0.0000000E+00  0.1428571E+00 -0.1303802E-05  0.0000000E+00 -0.8521163E-01
  0.1000000E+01  0.0000000E+00  0.1428571E+00 -0.6142417E-05  0.0000000E+00 -0.8521328E-01
  0.1040816E+01  0.0000000E+00  0.1428571E+00 -0.1092944E-04  0.0000000E+00 -0.8521714E-01
  0.1081633E+01  0.0000000E+00  0.1428571E+00 -0.1557957E-04  0.0000000E+00 -0.8522316E-01
  0.1122449E+01  0.0000000E+00  0.1428571E+00 -0.2000635E-04  0.0000000E+00 -0.8523127E-01
  0.1163265E+01  0.0000000E+00  0.1428571E+00 -0.2413474E-04  0.0000000E+00 -0.8524134E-01
  0.1204082E+01  0.0000000E+00  0.1428571E+00 -0.2789872E-04  0.0000000E+00 -0.8525322E-01
  0.1244898E+01  0.0000000E+00  0.1428571E+00 -0.3122963E-04  0.0000000E+00 -0.8526673E-01
  0.1285714E+01  0.0000000E+00  0.1428571E+00 -0.3407072E-04  0.0000000E+00 -0.8528165E-01
  0.1326531E+01  0.0000000E+00  0.1428571E+00 -0.3638135E-04  0.0000000E+00 -0.8529774E-01
  0.1367347E+01  0.0000000E+00  0.1428571E+00 -0.3812978E-04  0.0000000E+00 -0.8531476E-01
  0.1408163E+01  0.0000000E+00  0.1428571E+00 -0.3929193E-04  0.0000000E+00 -0.8533244E-01
  0.1448980E+01  0.0000000E+00  0.1428571E+00 -0.3985383E-04  0.0000000E+00 -0.8535051E-01
  0.1489796E+01  0.0000000E+00  0.1428571E+00 -0.3981248E-04  0.0000000E+00 -0.8536869E-01
  0.1530612E+01  0.0000000E+00  0.1428571E+00 -0.3917516E-04  0.0000000E+00 -0.8538671E-01
  0.1571429E+01  0.0000000E+00  0.1428571E+00 -0.3795837E-04  0.0000000E+00 -0.8540431E-01
  0.1612245E+01  0.0000000E+00  0.1428571E+00 -0.3618704E-04  0.0000000E+00 -0.8542121E-01
  0.1653061E+01  0.0000000E+00  0.1428571E+00 -0.3389345E-04  0.0000000E+00 -0.8543718E-01
  0.1693878E+01  0.0000000E+00  0.1428571E+00 -0.3111599E-04  0.0000000E+00 -0.8545200E-01
  0.1734694E+01  0.0000000E+00  0.1428571E+00 -0.2789846E-04  0.0000000E+00 -0.8546544E-01
  0.1775510E+01  0.0000000E+00  0.1428571E+00 -0.2428998E-04  0.0000000E+00 -0.8547732E-01
  0.1816326E+01  0.0000000E+00  0.1428571E+00 -0.2034439E-04  0.0000000E+00 -0.8548748E-01
  0.1857143E+01  0.0000000E+00  0.1428571E+00 -0.1611890E-04  0.0000000E+00 -0.8549578E-01
  0.1897959E+01  0.0000000E+00  0.1428571E+00 -0.1167269E-04  0.0000000E+00 -0.8550211E-01
  0.1938776E+01  0.0000000E+00  0.1428571E+00 -0.7066909E-05  0.0000000E+00 -0.8550637E-01
  0.1989796E+01  0.0000000E+00  0.1428571E+00 -0.2366075E-05  0.0000000E+00 -0.8550852E-01
  0.2040816E-01  0.0000000E+00  0.1836735E+00  0.2614523E-05  0.0000000E+00 -0.8544276E-01
  0.6122449E-01  0.0000000E+00  0.1836735E+00  0.7803989E-05  0.0000000E+00 -0.8544070E-01
  0.1020408E+00  0.0000000E+00  0.1836735E+00  0.1286783E-04  0.0000000E+00 -0.8543662E-01
  0.1428571E+00  0.0000000E+00  0.1836735E+00  0.1772071E-04  0.0000000E+00 -0.8543059E-01
  0.1836735E+00  0.0000000E+00  0.1836735E+00  0.2227837E-04  0.0000000E+00 -0.8542270E-01
  0.2244898E+00  0.0000000E+00  0.1836735E+00  0.2646630E-04  0.0000000E+00 -0.8541308E-01
  0.2653061E+00  0.0000000E+00  0.1836735E+00  0.3021527E-04  0.0000000E+00 -0.8540189E-01
  0.3061225E+00  0.0000000E+00  0.1836735E+00  0.3345256E-04  0.0000000E+00 -0.8538932E-01
  0.3469388E+00  0.0000000E+00  0.1836735E+00  0.3611699E-04  0.0000000E+00 -0.8537557E-01
  0.3877551E+00  0.0000000E+00  0.1836735E+00  0.3815831E-04  0.0000000E+00 -0.8536088E-01
  0.4285714E+00  0.0000000E+00  0.1836735E+00  0.3953409E-04  0.0000000E+00 -0.8534550E-01
  0.4693878E+00  0.0000000E+00  0.1836735E+00  0.4021060E-04  0.0000000E+00 -0.8532971E-01
  0.5102041E+00  0.0000000E+00  0.1836735E+00  0.4016522E-04  0.0000000E+00 -0.8531378E-01
  0.5510204E+00  0.0000000E+00  0.1836735E+00  0.3938800E-04  0.0000000E+00 -0.8529800E-01
  0.5918368E+00  0.0000000E+00  0.1836735E+00  0.3788221E-04  0.0000000E+00 -0.8528265E-01
  0.6326531E+00  0.0000000E+00  0.1836735E+00  0.3566439E-04  0.0000000E+00 -0.8526804E-01
  0.6734694E+00  0.0000000E+00  0.1836735E+00  0.3276446E-04  0.0000000E+00 -0.8525442E-01
  0.7142857E+00  0.0000000E+00  0.1836735E+00  0.2922575E-04  0.0000000E+00 -0.8524207E-01
  0.7551020E+00  0.0000000E+00  0.1836735E+00  0.2510479E-04  0.0000000E+00 -0.8523123E-01
  0.7959183E+00  0.0000000E+00  0.1836735E+00  0.2047012E-04  0.0000000E+00 -0.8522211E-01
  0.8367347E+00  0.0000000E+00  0.1836735E+00  0.1540032E-04  0.0000000E+00 -0.8521492E-01
  0.8775510E+00  0.0000000E+00  0.1836735E+00  0.9984054E-05  0.0000000E+00 -0.8520980E-01
  0.9183673E+00  0.0000000E+00  0.1836735E+00  0.4318542E-05  0.0000000E+00 -0.8520687E-01
  0.9591837E+00  0.0000000E+00  0.1836735E+00 -0.1493040E-05  0.0000000E+00 -0.8520622E-01
  0.1000000E+01  0.0000000E+00  0.1836735E+00 -0.7348472E-05  0.0000000E+00 -0.8520787E-01
  0.1040816E+01  0.0000000E+00  0.1836735E+00 -0.1314112E-04  0.0000000E+00 -0.8521184E-01
  0.1081633E+01  0.0000000E+00  0.1836735E+00 -0.1876659E-04  0.0000000E+00 -0.8521806E-01
  0.1122449E+01  0.0000000E+00  0.1836735E+00 -0.2412127E-04  0.0000000E+00 -0.8522646E-01
  0.1163265E+01  0.0000000E+00  0.1836735E+00 -0.2911304E-04  0.0000000E+00 -0.8523690E-01
  0.1204082E+01  0.0000000E+00  0.1836735E+00 -0.3366053E-04  0.0000000E+00 -0.8524923E-01
  0.1244898E+01  0.0000000E+00  0.1836735E+00 -0.3768327E-04  0.0000000E+00 -0.8526325E-01
  0.1285714E+01  0.0000000E+00  0.1836735E+00 -0.4111219E-04  0.0000000E+00 -0.8527873E-01
  0.1326531E+01  0.0000000E+00  0.1836735E+00 -0.4389757E-04  0.0000000E+00 -0.8529543E-01
  0.1367347E+01  0.0000000E+00  0.1836735E+00 -0.4600172E-04  0.0000000E+00 -0.8531309E-01
  0.1408163E+01  0.0000000E+00  0.1836735E+00 -0.4739642E-04  0.0000000E+00 -0.8533143E-01
  0.1448980E+01  0.0000000E+00  0.1836735E+00 -0.4806550E-04  0.0000000E+00 -0.8535017E-01
  0.1489796E+01  0.0000000E+00  0.1836735E+00 -0.4800626E-04  0.0000000E+00 -0.8536901E-01
  0.1530612E+01  0.0000000E+00  0.1836735E+00 -0.4722838E-04  0.0000000E+00 -0.8538768E-01
  0.1571429E+01  0.0000000E+00  0.1836735E+00 -0.4575235E-04  0.0000000E+00 -0.8540591E-01
  0.1612245E+01  0.0000000E+00  0.1836735E+00 -0.4360852E-04  0.0000000E+00 -0.8542341E-01
  0.1653061E+01  0.0000000E+00  0.1836735E+00 -0.4083627E-04  0.0000000E+00 -0.8543994E-01
  0.1693878E+01  0.0000000E+00  0.1836735E+00 -0.3748271E-04  0.0000000E+00 -0.8545526E-01
  0.1734694E+01  0.0000000E+00  0.1836735E+00 -0.3360121E-04  0.0000000E+00 -0.8546916E-01
  0.1775510E+01  0.0000000E+00  0.1836735E+00 -0.2925084E-04  0.0000000E+00 -0.8548145E-01
  0.1816326E+01  0.0000000E+00  0.1836735E+00 -0.2449621E-04  0.0000000E+00 -0.8549195E-01
  0.1857143E+01  0.0000000E+00  0.1836735E+00 -0.1940620E-04  0.0000000E+00 -0.8550052E-01
  0.1897959E+01  0.0000000E+00  0.1836735E+00 -0.1405188E-04  0.0000000E+00 -0.8550706E-01
  0.1938776E+01  0.0000000E+00  0.1836735E+00 -0.8506937E-05  0.0000000E+00 -0.8551146E-01
  0.1989796E+01  0.0000000E+00  0.1836735E+00 -0.2848283E-05  0.0000000E+00 -0.8551368E-01
  0.2040816E-01  0.0000000E+00  0.2244898E+00  0.3039694E-05  0.0000000E+00 -0.8544832E-01
  0.6122449E-01  0.0000000E+00  0.2244898E+00  0.9072743E-05  0.0000000E+00 -0.8544617E-01
  0.1020408E+00  0.0000000E+00  0.2244898E+00  0.1496069E-04  0.0000000E+00 -0.8544191E-01
  0.1428571E+00  0.0000000E+00  0.2244898E+00  0.2060491E-04  0.0000000E+00 -0.8543561E-01
  0.1836735E+00  0.0000000E+00  0.2244898E+00  0.2590860E-04  0.0000000E+00 -0.8542736E-01
  0.2244898E+00  0.0000000E+00  0.2244898E+00  0.3078490E-04  0.0000000E+00 -0.8541730E-01
  0.2653061E+00  0.0000000E+00  0.2244898E+00  0.3515290E-04  0.0000000E+00 -0.8540560E-01
  0.3061225E+00  0.0000000E+00  0.2244898E+00  0.3892884E-04  0.0000000E+00 -0.8539243E-01
  0.3469388E+00  0.0000000E+00  0.2244898E+00  0.4204137E-04  0.0000000E+00 -0.8537804E-01
  0.3877551E+00  0.0000000E+00  0.2244898E+00  0.4443122E-04  0.0000000E+00 -0.8536265E-01
  0.4285714E+00  0.0000000E+00  0.2244898E+00  0.4604824E-04  0.0000000E+00 -0.8534653E-01
  0.4693878E+00  0.0000000E+00  0.2244898E+00  0.4685248E-04  0.0000000E+00 -0.8532997E-01
  0.5102041E+00  0.0000000E+00  0.2244898E+00  0.4681691E-04  0.0000000E+00 -0.8531325E-01
  0.5510204E+00  0.0000000E+00  0.2244898E+00  0.4592910E-04  0.0000000E+00 -0.8529667E-01
  0.5918368E+00  0.0000000E+00  0.2244898E+00  0.4419199E-04  0.0000000E+00 -0.8528055E-01
  0.6326531E+00  0.0000000E+00  0.2244898E+00  0.4162402E-04  0.0000000E+00 -0.8526517E-01
  0.6734694E+00  0.0000000E+00  0.2244898E+00  0.3825932E-04  0.0000000E+00 -0.8525084E-01
  0.7142857E+00  0.0000000E+00  0.2244898E+00  0.3414793E-04  0.0000000E+00 -0.8523783E-01
  0.7551020E+00  0.0000000E+00  0.2244898E+00  0.2935560E-04  0.0000000E+00 -0.8522639E-01
  0.7959183E+00  0.0000000E+00  0.2244898E+00  0.2396212E-04  0.0000000E+00 -0.8521676E-01
  0.8367347E+00  0.0000000E+00  0.2244898E+00  0.1805875E-04  0.0000000E+00 -0.8520914E-01
  0.8775510E+00  0.0000000E+00  0.2244898E+00  0.1174983E-04  0.0000000E+00 -0.8520370E-01
  0.9183673E+00  0.0000000E+00  0.2244898E+00  0.5148941E-05  0.0000000E+00 -0.8520055E-01
  0.9591837E+00  0.0000000E+00  0.2244898E+00 -0.1623308E-05  0.0000000E+00 -0.8519980E-01
  0.1000000E+01  0.0000000E+00  0.2244898E+00 -0.8446535E-05  0.0000000E+00 -0.8520147E-01
  0.1040816E+01  0.0000000E+00  0.2244898E+00 -0.1519588E-04  0.0000000E+00 -0.8520556E-01
  0.1081633E+01  0.0000000E+00  0.2244898E+00 -0.2174857E-04  0.0000000E+00 -0.8521202E-01
  0.1122449E+01  0.0000000E+00  0.2244898E+00 -0.2798434E-04  0.0000000E+00 -0.8522076E-01
  0.1163265E+01  0.0000000E+00  0.2244898E+00 -0.3379488E-04  0.0000000E+00 -0.8523164E-01
  0.1204082E+01  0.0000000E+00  0.2244898E+00 -0.3908335E-04  0.0000000E+00 -0.8524450E-01
  0.1244898E+01  0.0000000E+00  0.2244898E+00 -0.4375904E-04  0.0000000E+00 -0.8525912E-01
  0.1285714E+01  0.0000000E+00  0.2244898E+00 -0.4774111E-04  0.0000000E+00 -0.8527527E-01
  0.1326531E+01  0.0000000E+00  0.2244898E+00 -0.5097095E-04  0.0000000E+00 -0.8529270E-01
  0.1367347E+01  0.0000000E+00  0.2244898E+00 -0.5340568E-04  0.0000000E+00 -0.8531111E-01
  0.1408163E+01  0.0000000E+00  0.2244898E+00 -0.5501394E-04  0.0000000E+00 -0.8533023E-01
  0.1448980E+01  0.0000000E+00  0.2244898E+00 -0.5577794E-04  0.0000000E+00 -0.8534976E-01
  0.1489796E+01  0.0000000E+00  0.2244898E+00 -0.5569539E-04  0.0000000E+00 -0.8536939E-01
  0.1530612E+01  0.0000000E+00  0.2244898E+00 -0.5477880E-04  0.0000000E+00 -0.8538883E-01
  0.1571429E+01  0.0000000E+00  0.2244898E+00 -0.5305324E-04  0.0000000E+00 -0.8540779E-01
  0.1612245E+01  0.0000000E+00  0.2244898E+00 -0.5055468E-04  0.0000000E+00 -0.8542600E-01
  0.1653061E+01  0.0000000E+00  0.2244898E+00 -0.4732921E-04  0.0000000E+00 -0.8544318E-01
  0.1693878E+01  0.0000000E+00  0.2244898E+00 -0.4343206E-04  0.0000000E+00 -0.8545910E-01
  0.1734694E+01  0.0000000E+00  0.2244898E+00 -0.3892602E-04  0.0000000E+00 -0.8547354E-01
  0.1775510E+01  0.0000000E+00  0.2244898E+00 -0.3387996E-04  0.0000000E+00 -0.8548630E-01
  0.1816326E+01  0.0000000E+00  0.2244898E+00 -0.2836847E-04  0.0000000E+00 -0.8549720E-01
  0.1857143E+01  0.0000000E+00  0.2244898E+00 -0.2247087E-04  0.0000000E+00 -0.8550610E-01
  0.1897959E+01  0.0000000E+00  0.2244898E+00 -0.1626909E-04  0.0000000E+00 -0.8551288E-01
  0.1938776E+01  0.0000000E+00  0.2244898E+00 -0.9848496E-05  0.0000000E+00 -0.8551745E-01
  0.1989796E+01  0.0000000E+00  0.2244898E+00 -0.3297415E-05  0.0000000E+00 -0.8551975E-01
  0.2040816E-01  0.0000000E+00  0.2653061E+00  0.3450505E-05  0.0000000E+00 -0.8545469E-01
  0.6122449E-01  0.0000000E+00  0.2653061E+00  0.1029902E-04  0.0000000E+00 -0.8545244E-01
  0.1020408E+00  0.0000000E+00  0.2653061E+00  0.1698404E-04  0.0000000E+00 -0.8544797E-01
  0.1428571E+00  0.0000000E+00  0.2653061E+00  0.2339456E-04  0.0000000E+00 -0.8544136E-01
  0.1836735E+00  0.0000000E+00  0.2653061E+00  0.2942192E-04  0.0000000E+00 -0.8543270E-01
  0.2244898E+00  0.0000000E+00  0.2653061E+00  0.3496748E-04  0.0000000E+00 -0.8542214E-01
  0.2653061E+00  0.0000000E+00  0.2653061E+00  0.3993911E-04  0.0000000E+00 -0.8540985E-01
  0.3061225E+00  0.0000000E+00  0.2653061E+00  0.4424231E-04  0.0000000E+00 -0.8539602E-01
  0.3469388E+00  0.0000000E+00  0.2653061E+00  0.4779578E-04  0.0000000E+00 -0.8538088E-01
  0.3877551E+00  0.0000000E+00  0.2653061E+00  0.5053121E-04  0.0000000E+00 -0.8536469E-01
  0.4285714E+00  0.0000000E+00  0.2653061E+00  0.5239062E-04  0.0000000E+00 -0.8534773E-01
  0.4693878E+00  0.0000000E+00  0.2653061E+00  0.5332765E-04  0.0000000E+00 -0.8533028E-01
  0.5102041E+00  0.0000000E+00  0.2653061E+00  0.5331051E-04  0.0000000E+00 -0.8531265E-01
  0.5510204E+00  0.0000000E+00  0.2653061E+00  0.5232391E-04  0.0000000E+00 -0.8529517E-01
  0.5918368E+00  0.0000000E+00  0.2653061E+00  0.5036999E-04  0.0000000E+00 -0.8527814E-01
  0.6326531E+00  0.0000000E+00  0.2653061E+00  0.4746861E-04  0.0000000E+00 -0.8526189E-01
  0.6734694E+00  0.0000000E+00  0.2653061E+00  0.4365767E-04  0.0000000E+00 -0.8524673E-01
  0.7142857E+00  0.0000000E+00  0.2653061E+00  0.3899349E-04  0.0000000E+00 -0.8523295E-01
  0.7551020E+00  0.0000000E+00  0.2653061E+00  0.3355062E-04  0.0000000E+00 -0.8522083E-01
  0.7959183E+00  0.0000000E+00  0.2653061E+00  0.2741984E-04  0.0000000E+00 -0.8521060E-01
  0.8367347E+00  0.0000000E+00  0.2653061E+00  0.2070504E-04  0.0000000E+00 -0.8520249E-01
  0.8775510E+00  0.0000000E+00  0.2653061E+00  0.1352564E-04  0.0000000E+00 -0.8519667E-01
  0.9183673E+00  0.0000000E+00  0.2653061E+00  0.6011798E-05  0.0000000E+00 -0.8519328E-01
  0.9591837E+00  0.0000000E+00  0.2653061E+00 -0.1698512E-05  0.0000000E+00 -0.8519241E-01
  0.1000000E+01  0.0000000E+00  0.2653061E+00 -0.9466829E-05  0.0000000E+00 -0.8519409E-01
  0.1040816E+01  0.0000000E+00  0.2653061E+00 -0.1715006E-04  0.0000000E+00 -0.8519833E-01
  0.1081633E+01  0.0000000E+00  0.2653061E+00 -0.2460696E-04  0.0000000E+00 -0.8520507E-01
  0.1122449E+01  0.0000000E+00  0.2653061E+00 -0.3170079E-04  0.0000000E+00 -0.8521420E-01
  0.1163265E+01  0.0000000E+00  0.2653061E+00 -0.3830762E-04  0.0000000E+00 -0.8522560E-01
  0.1204082E+01  0.0000000E+00  0.2653061E+00 -0.4431424E-04  0.0000000E+00 -0.8523907E-01
  0.1244898E+01  0.0000000E+00  0.2653061E+00 -0.4962078E-04  0.0000000E+00 -0.8525439E-01
  0.1285714E+01  0.0000000E+00  0.2653061E+00 -0.5413553E-04  0.0000000E+00 -0.8527131E-01
  0.1326531E+01  0.0000000E+00  0.2653061E+00 -0.5779097E-04  0.0000000E+00 -0.8528957E-01