title = "dataset feddes"
variables = "x", "y", "z", "vx", "vy", "vz"
zone t = "velocities, solution time =  4.800E+01 days        " i =   49, j =   49, k =    1,  f=point
  0.2040816E-01  0.0000000E+00  0.2040816E-01  0.5165213E-06  0.0000000E+00 -0.8518772E-01
  0.6122449E-01  0.0000000E+00  0.2040816E-01  0.1539786E-05  0.0000000E+00 -0.8518539E-01
  0.1020408E+00  0.0000000E+00  0.2040816E-01  0.2539030E-05  0.0000000E+00 -0.8518076E-01
  0.1428571E+00  0.0000000E+00  0.2040816E-01  0.3496212E-05  0.0000000E+00 -0.8517390E-01
  0.1836735E+00  0.0000000E+00  0.2040816E-01  0.4394068E-05  0.0000000E+00 -0.8516494E-01
  0.2244898E+00  0.0000000E+00  0.2040816E-01  0.5212301E-05  0.0000000E+00 -0.8515403E-01
  0.2653061E+00  0.0000000E+00  0.2040816E-01  0.5937346E-05  0.0000000E+00 -0.8514137E-01
  0.3061225E+00  0.0000000E+00  0.2040816E-01  0.6557761E-05  0.0000000E+00 -0.8512718E-01
  0.3469388E+00  0.0000000E+00  0.2040816E-01  0.7062092E-05  0.0000000E+00 -0.8511171E-01
  0.3877551E+00  0.0000000E+00  0.2040816E-01  0.7439526E-05  0.0000000E+00 -0.8509525E-01
  0.4285714E+00  0.0000000E+00  0.2040816E-01  0.7680974E-05  0.0000000E+00 -0.8507808E-01
  0.4693878E+00  0.0000000E+00  0.2040816E-01  0.7779743E-05  0.0000000E+00 -0.8506052E-01
  0.5102041E+00  0.0000000E+00  0.2040816E-01  0.7731838E-05  0.0000000E+00 -0.8504291E-01
  0.5510204E+00  0.0000000E+00  0.2040816E-01  0.7536089E-05  0.0000000E+00 -0.8502557E-01
  0.5918368E+00  0.0000000E+00  0.2040816E-01  0.7194197E-05  0.0000000E+00 -0.8500885E-01
  0.6326531E+00  0.0000000E+00  0.2040816E-01  0.6710721E-05  0.0000000E+00 -0.8499306E-01
  0.6734694E+00  0.0000000E+00  0.2040816E-01  0.6092975E-05  0.0000000E+00 -0.8497852E-01
  0.7142857E+00  0.0000000E+00  0.2040816E-01  0.5350858E-05  0.0000000E+00 -0.8496553E-01
  0.7551020E+00  0.0000000E+00  0.2040816E-01  0.4496657E-05  0.0000000E+00 -0.8495435E-01
  0.7959183E+00  0.0000000E+00  0.2040816E-01  0.3544891E-05  0.0000000E+00 -0.8494522E-01
  0.8367347E+00  0.0000000E+00  0.2040816E-01  0.2512174E-05  0.0000000E+00 -0.8493835E-01
  0.8775510E+00  0.0000000E+00  0.2040816E-01  0.1417191E-05  0.0000000E+00 -0.8493389E-01
  0.9183673E+00  0.0000000E+00  0.2040816E-01  0.2806532E-06  0.0000000E+00 -0.8493196E-01
  0.9591837E+00  0.0000000E+00  0.2040816E-01 -0.8750848E-06  0.0000000E+00 -0.8493263E-01
  0.1000000E+01  0.0000000E+00  0.2040816E-01 -0.2029859E-05  0.0000000E+00 -0.8493593E-01
  0.1040816E+01  0.0000000E+00  0.2040816E-01 -0.3167520E-05  0.0000000E+00 -0.8494183E-01
  0.1081633E+01  0.0000000E+00  0.2040816E-01 -0.4266304E-05  0.0000000E+00 -0.8495027E-01
  0.1122449E+01  0.0000000E+00  0.2040816E-01 -0.5306739E-05  0.0000000E+00 -0.8496114E-01
  0.1163265E+01  0.0000000E+00  0.2040816E-01 -0.6265754E-05  0.0000000E+00 -0.8497428E-01
  0.1204082E+01  0.0000000E+00  0.2040816E-01 -0.7129397E-05  0.0000000E+00 -0.8498949E-01
  0.1244898E+01  0.0000000E+00  0.2040816E-01 -0.7886639E-05  0.0000000E+00 -0.8500653E-01
  0.1285714E+01  0.0000000E+00  0.2040816E-01 -0.8526634E-05  0.0000000E+00 -0.8502517E-01
  0.1326531E+01  0.0000000E+00  0.2040816E-01 -0.9039529E-05  0.0000000E+00 -0.8504512E-01
  0.1367347E+01  0.0000000E+00  0.2040816E-01 -0.9417688E-05  0.0000000E+00 -0.8506607E-01
  0.1408163E+01  0.0000000E+00  0.2040816E-01 -0.9656216E-05  0.0000000E+00 -0.8508773E-01
  0.1448980E+01  0.0000000E+00  0.2040816E-01 -0.9752612E-05  0.0000000E+00 -0.8510977E-01
  0.1489796E+01  0.0000000E+00  0.2040816E-01 -0.9706752E-05  0.0000000E+00 -0.8513187E-01
  0.1530612E+01  0.0000000E+00  0.2040816E-01 -0.9521101E-05  0.0000000E+00 -0.8515370E-01
  0.1571429E+01  0.0000000E+00  0.2040816E-01 -0.9200231E-05  0.0000000E+00 -0.8517496E-01
  0.1612245E+01  0.0000000E+00  0.2040816E-01 -0.8750363E-05  0.0000000E+00 -0.8519535E-01
  0.1653061E+01  0.0000000E+00  0.2040816E-01 -0.8179099E-05  0.0000000E+00 -0.8521458E-01
  0.1693878E+01  0.0000000E+00  0.2040816E-01 -0.7495714E-05  0.0000000E+00 -0.8523238E-01
  0.1734694E+01  0.0000000E+00  0.2040816E-01 -0.6710986E-05  0.0000000E+00 -0.8524852E-01
  0.1775510E+01  0.0000000E+00  0.2040816E-01 -0.5836458E-05  0.0000000E+00 -0.8526277E-01
  0.1816326E+01  0.0000000E+00  0.2040816E-01 -0.4884191E-05  0.0000000E+00 -0.8527495E-01
  0.1857143E+01  0.0000000E+00  0.2040816E-01 -0.3867074E-05  0.0000000E+00 -0.8528489E-01
  0.1897959E+01  0.0000000E+00  0.2040816E-01 -0.2798736E-05  0.0000000E+00 -0.8529246E-01
  0.1938776E+01  0.0000000E+00  0.2040816E-01 -0.1693514E-05  0.0000000E+00 -0.8529756E-01
  0.1989796E+01  0.0000000E+00  0.2040816E-01 -0.5665788E-06  0.0000000E+00 -0.8530013E-01
  0.2040816E-01  0.0000000E+00  0.6122449E-01  0.1415820E-05  0.0000000E+00 -0.8518978E-01
  0.6122449E-01  0.0000000E+00  0.6122449E-01  0.4222864E-05  0.0000000E+00 -0.8518741E-01
  0.1020408E+00  0.0000000E+00  0.6122449E-01  0.6964652E-05  0.0000000E+00 -0.8518270E-01
  0.1428571E+00  0.0000000E+00  0.6122449E-01  0.9589330E-05  0.0000000E+00 -0.8517574E-01
  0.1836735E+00  0.0000000E+00  0.6122449E-01  0.1205026E-04  0.0000000E+00 -0.8516664E-01
  0.2244898E+00  0.0000000E+00  0.6122449E-01  0.1429456E-04  0.0000000E+00 -0.8515557E-01
  0.2653061E+00  0.0000000E+00  0.6122449E-01  0.1628459E-04  0.0000000E+00 -0.8514271E-01
  0.3061225E+00  0.0000000E+00  0.6122449E-01  0.1798801E-04  0.0000000E+00 -0.8512830E-01
  0.3469388E+00  0.0000000E+00  0.6122449E-01  0.1937303E-04  0.0000000E+00 -0.8511259E-01
  0.3877551E+00  0.0000000E+00  0.6122449E-01  0.2040998E-04  0.0000000E+00 -0.8509586E-01
  0.4285714E+00  0.0000000E+00  0.6122449E-01  0.2107401E-04  0.0000000E+00 -0.8507841E-01
  0.4693878E+00  0.0000000E+00  0.6122449E-01  0.2134673E-04  0.0000000E+00 -0.8506056E-01
  0.5102041E+00  0.0000000E+00  0.6122449E-01  0.2121712E-04  0.0000000E+00 -0.8504265E-01
  0.5510204E+00  0.0000000E+00  0.6122449E-01  0.2068188E-04  0.0000000E+00 -0.8502502E-01
  0.5918368E+00  0.0000000E+00  0.6122449E-01  0.1974560E-04  0.0000000E+00 -0.8500801E-01
  0.6326531E+00  0.0000000E+00  0.6122449E-01  0.1842072E-04  0.0000000E+00 -0.8499195E-01
  0.6734694E+00  0.0000000E+00  0.6122449E-01  0.1672727E-04  0.0000000E+00 -0.8497715E-01
  0.7142857E+00  0.0000000E+00  0.6122449E-01  0.1469236E-04  0.0000000E+00 -0.8496392E-01
  0.7551020E+00  0.0000000E+00  0.6122449E-01  0.1234956E-04  0.0000000E+00 -0.8495253E-01
  0.7959183E+00  0.0000000E+00  0.6122449E-01  0.9738660E-05  0.0000000E+00 -0.8494323E-01
  0.8367347E+00  0.0000000E+00  0.6122449E-01  0.6905490E-05  0.0000000E+00 -0.8493621E-01
  0.8775510E+00  0.0000000E+00  0.6122449E-01  0.3901882E-05  0.0000000E+00 -0.8493165E-01
  0.9183673E+00  0.0000000E+00  0.6122449E-01  0.7852339E-06  0.0000000E+00 -0.8492965E-01
  0.9591837E+00  0.0000000E+00  0.6122449E-01 -0.2385292E-05  0.0000000E+00 -0.8493031E-01
  0.1000000E+01  0.0000000E+00  0.6122449E-01 -0.5554222E-05  0.0000000E+00 -0.8493362E-01
  0.1040816E+01  0.0000000E+00  0.6122449E-01 -0.8676257E-05  0.0000000E+00 -0.8493959E-01
  0.1081633E+01  0.0000000E+00  0.6122449E-01 -0.1168908E-04  0.0000000E+00 -0.8494813E-01
  0.1122449E+01  0.0000000E+00  0.6122449E-01 -0.1454009E-04  0.0000000E+00 -0.8495914E-01
  0.1163265E+01  0.0000000E+00  0.6122449E-01 -0.1716925E-04  0.0000000E+00 -0.8497244E-01
  0.1204082E+01  0.0000000E+00  0.6122449E-01 -0.1953749E-04  0.0000000E+00 -0.8498785E-01
  0.1244898E+01  0.0000000E+00  0.6122449E-01 -0.2161355E-04  0.0000000E+00 -0.8500512E-01
  0.1285714E+01  0.0000000E+00  0.6122449E-01 -0.2336757E-04  0.0000000E+00 -0.8502400E-01
  0.1326531E+01  0.0000000E+00  0.6122449E-01 -0.2477263E-04  0.0000000E+00 -0.8504421E-01
  0.1367347E+01  0.0000000E+00  0.6122449E-01 -0.2580782E-04  0.0000000E+00 -0.8506545E-01
  0.1408163E+01  0.0000000E+00  0.6122449E-01 -0.2645993E-04  0.0000000E+00 -0.8508739E-01
  0.1448980E+01  0.0000000E+00  0.6122449E-01 -0.2672266E-04  0.0000000E+00 -0.8510971E-01
  0.1489796E+01  0.0000000E+00  0.6122449E-01 -0.2659574E-04  0.0000000E+00 -0.8513209E-01
  0.1530612E+01  0.0000000E+00  0.6122449E-01 -0.2608558E-04  0.0000000E+00 -0.8515420E-01
  0.1571429E+01  0.0000000E+00  0.6122449E-01 -0.2520473E-04  0.0000000E+00 -0.8517573E-01
  0.1612245E+01  0.0000000E+00  0.6122449E-01 -0.2397077E-04  0.0000000E+00 -0.8519636E-01
  0.1653061E+01  0.0000000E+00  0.6122449E-01 -0.2240488E-04  0.0000000E+00 -0.8521582E-01
  0.1693878E+01  0.0000000E+00  0.6122449E-01 -0.2053215E-04  0.0000000E+00 -0.8523384E-01
  0.1734694E+01  0.0000000E+00  0.6122449E-01 -0.1838177E-04  0.0000000E+00 -0.8525017E-01
  0.1775510E+01  0.0000000E+00  0.6122449E-01 -0.1598560E-04  0.0000000E+00 -0.8526459E-01
  0.1816326E+01  0.0000000E+00  0.6122449E-01 -0.1337690E-04  0.0000000E+00 -0.8527691E-01
  0.1857143E+01  0.0000000E+00  0.6122449E-01 -0.1059082E-04  0.0000000E+00 -0.8528696E-01
  0.1897959E+01  0.0000000E+00  0.6122449E-01 -0.7664612E-05  0.0000000E+00 -0.8529462E-01
  0.1938776E+01  0.0000000E+00  0.6122449E-01 -0.4637751E-05  0.0000000E+00 -0.8529978E-01
  0.1989796E+01  0.0000000E+00  0.6122449E-01 -0.1552128E-05  0.0000000E+00 -0.8530238E-01
  0.2040816E-01  0.0000000E+00  0.1020408E+00  0.2128088E-05  0.0000000E+00 -0.8519334E-01
  0.6122449E-01  0.0000000E+00  0.1020408E+00  0.6348805E-05  0.0000000E+00 -0.8519091E-01
  0.1020408E+00  0.0000000E+00  0.1020408E+00  0.1047194E-04  0.0000000E+00 -0.8518608E-01
  0.1428571E+00  0.0000000E+00  0.1020408E+00  0.1441713E-04  0.0000000E+00 -0.8517894E-01
  0.1836735E+00  0.0000000E+00  0.1020408E+00  0.1811510E-04  0.0000000E+00 -0.8516960E-01
  0.2244898E+00  0.0000000E+00  0.1020408E+00  0.2149071E-04  0.0000000E+00 -0.8515824E-01
  0.2653061E+00  0.0000000E+00  0.1020408E+00  0.2448670E-04  0.0000000E+00 -0.8514504E-01
  0.3061225E+00  0.0000000E+00  0.1020408E+00  0.2705280E-04  0.0000000E+00 -0.8513024E-01
  0.3469388E+00  0.0000000E+00  0.1020408E+00  0.2914047E-04  0.0000000E+00 -0.8511410E-01
  0.3877551E+00  0.0000000E+00  0.1020408E+00  0.3070502E-04  0.0000000E+00 -0.8509691E-01
  0.4285714E+00  0.0000000E+00  0.1020408E+00  0.3170903E-04  0.0000000E+00 -0.8507897E-01
  0.4693878E+00  0.0000000E+00  0.1020408E+00  0.3212475E-04  0.0000000E+00 -0.8506063E-01
  0.5102041E+00  0.0000000E+00  0.1020408E+00  0.3193536E-04  0.0000000E+00 -0.8504221E-01
  0.5510204E+00  0.0000000E+00  0.1020408E+00  0.3113560E-04  0.0000000E+00 -0.8502406E-01
  0.5918368E+00  0.0000000E+00  0.1020408E+00  0.2973212E-04  0.0000000E+00 -0.8500655E-01
  0.6326531E+00  0.0000000E+00  0.1020408E+00  0.2774344E-04  0.0000000E+00 -0.8499000E-01
  0.6734694E+00  0.0000000E+00  0.1020408E+00  0.2519959E-04  0.0000000E+00 -0.8497475E-01
  0.7142857E+00  0.0000000E+00  0.1020408E+00  0.2214125E-04  0.0000000E+00 -0.8496111E-01
  0.7551020E+00  0.0000000E+00  0.1020408E+00  0.1861873E-04  0.0000000E+00 -0.8494936E-01
  0.7959183E+00  0.0000000E+00  0.1020408E+00  0.1469172E-04  0.0000000E+00 -0.8493974E-01
  0.8367347E+00  0.0000000E+00  0.1020408E+00  0.1042973E-04  0.0000000E+00 -0.8493248E-01
  0.8775510E+00  0.0000000E+00  0.1020408E+00  0.5912288E-05  0.0000000E+00 -0.8492773E-01
  0.9183673E+00  0.0000000E+00  0.1020408E+00  0.1225935E-05  0.0000000E+00 -0.8492563E-01
  0.9591837E+00  0.0000000E+00  0.1020408E+00 -0.3544206E-05  0.0000000E+00 -0.8492624E-01
  0.1000000E+01  0.0000000E+00  0.1020408E+00 -0.8312596E-05  0.0000000E+00 -0.8492960E-01
  0.1040816E+01  0.0000000E+00  0.1020408E+00 -0.1300918E-04  0.0000000E+00 -0.8493567E-01
  0.1081633E+01  0.0000000E+00  0.1020408E+00 -0.1753748E-04  0.0000000E+00 -0.8494439E-01
  0.1122449E+01  0.0000000E+00  0.1020408E+00 -0.2181940E-04  0.0000000E+00 -0.8495563E-01
  0.1163265E+01  0.0000000E+00  0.1020408E+00 -0.2576988E-04  0.0000000E+00 -0.8496923E-01
  0.1204082E+01  0.0000000E+00  0.1020408E+00 -0.2932879E-04  0.0000000E+00 -0.8498499E-01
  0.1244898E+01  0.0000000E+00  0.1020408E+00 -0.3244717E-04  0.0000000E+00 -0.8500266E-01
  0.1285714E+01  0.0000000E+00  0.1020408E+00 -0.3508001E-04  0.0000000E+00 -0.8502197E-01
  0.1326531E+01  0.0000000E+00  0.1020408E+00 -0.3718752E-04  0.0000000E+00 -0.8504264E-01
  0.1367347E+01  0.0000000E+00  0.1020408E+00 -0.3873838E-04  0.0000000E+00 -0.8506435E-01
  0.1408163E+01  0.0000000E+00  0.1020408E+00 -0.3971283E-04  0.0000000E+00 -0.8508679E-01
  0.1448980E+01  0.0000000E+00  0.1020408E+00 -0.4010244E-04  0.0000000E+00 -0.8510960E-01
  0.1489796E+01  0.0000000E+00  0.1020408E+00 -0.3990772E-04  0.0000000E+00 -0.8513247E-01
  0.1530612E+01  0.0000000E+00  0.1020408E+00 -0.3913805E-04  0.0000000E+00 -0.8515506E-01
  0.1571429E+01  0.0000000E+00  0.1020408E+00 -0.3781180E-04  0.0000000E+00 -0.8517705E-01
  0.1612245E+01  0.0000000E+00  0.1020408E+00 -0.3595596E-04  0.0000000E+00 -0.8519812E-01
  0.1653061E+01  0.0000000E+00  0.1020408E+00 -0.3360350E-04  0.0000000E+00 -0.8521798E-01
  0.1693878E+01  0.0000000E+00  0.1020408E+00 -0.3079217E-04  0.0000000E+00 -0.8523637E-01
  0.1734694E+01  0.0000000E+00  0.1020408E+00 -0.2756501E-04  0.0000000E+00 -0.8525303E-01
  0.1775510E+01  0.0000000E+00  0.1020408E+00 -0.2396970E-04  0.0000000E+00 -0.8526774E-01
  0.1816326E+01  0.0000000E+00  0.1020408E+00 -0.2005644E-04  0.0000000E+00 -0.8528031E-01
  0.1857143E+01  0.0000000E+00  0.1020408E+00 -0.1587797E-04  0.0000000E+00 -0.8529056E-01
  0.1897959E+01  0.0000000E+00  0.1020408E+00 -0.1149007E-04  0.0000000E+00 -0.8529837E-01
  0.1938776E+01  0.0000000E+00  0.1020408E+00 -0.6952373E-05  0.0000000E+00 -0.8530364E-01
  0.1989796E+01  0.0000000E+00  0.1020408E+00 -0.2327734E-05  0.0000000E+00 -0.8530628E-01
  0.2040816E-01  0.0000000E+00  0.1428571E+00  0.2755197E-05  0.0000000E+00 -0.8519819E-01
  0.6122449E-01  0.0000000E+00  0.1428571E+00  0.8219171E-05  0.0000000E+00 -0.8519568E-01
  0.1020408E+00  0.0000000E+00  0.1428571E+00  0.1355647E-04  0.0000000E+00 -0.8519068E-01
  0.1428571E+00  0.0000000E+00  0.1428571E+00  0.1866347E-04  0.0000000E+00 -0.8518330E-01
  0.1836735E+00  0.0000000E+00  0.1428571E+00  0.2345098E-04  0.0000000E+00 -0.8517364E-01
  0.2244898E+00  0.0000000E+00  0.1428571E+00  0.2782499E-04  0.0000000E+00 -0.8516188E-01
  0.2653061E+00  0.0000000E+00  0.1428571E+00  0.3171081E-04  0.0000000E+00 -0.8514822E-01
  0.3061225E+00  0.0000000E+00  0.1428571E+00  0.3504187E-04  0.0000000E+00 -0.8513289E-01
  0.3469388E+00  0.0000000E+00  0.1428571E+00  0.3775455E-04  0.0000000E+00 -0.8511617E-01
  0.3877551E+00  0.0000000E+00  0.1428571E+00  0.3979067E-04  0.0000000E+00 -0.8509835E-01
  0.4285714E+00  0.0000000E+00  0.1428571E+00  0.4110152E-04  0.0000000E+00 -0.8507975E-01
  0.4693878E+00  0.0000000E+00  0.1428571E+00  0.4165072E-04  0.0000000E+00 -0.8506071E-01
  0.5102041E+00  0.0000000E+00  0.1428571E+00  0.4141594E-04  0.0000000E+00 -0.8504159E-01
  0.5510204E+00  0.0000000E+00  0.1428571E+00  0.4038984E-04  0.0000000E+00 -0.8502275E-01
  0.5918368E+00  0.0000000E+00  0.1428571E+00  0.3858054E-04  0.0000000E+00 -0.8500454E-01
  0.6326531E+00  0.0000000E+00  0.1428571E+00  0.3601165E-04  0.0000000E+00 -0.8498734E-01
  0.6734694E+00  0.0000000E+00  0.1428571E+00  0.3272182E-04  0.0000000E+00 -0.8497147E-01
  0.7142857E+00  0.0000000E+00  0.1428571E+00  0.2876369E-04  0.0000000E+00 -0.8495726E-01
  0.7551020E+00  0.0000000E+00  0.1428571E+00  0.2420245E-04  0.0000000E+00 -0.8494501E-01
  0.7959183E+00  0.0000000E+00  0.1428571E+00  0.1911536E-04  0.0000000E+00 -0.8493497E-01
  0.8367347E+00  0.0000000E+00  0.1428571E+00  0.1359294E-04  0.0000000E+00 -0.8492736E-01
  0.8775510E+00  0.0000000E+00  0.1428571E+00  0.7739826E-05  0.0000000E+00 -0.8492237E-01
  0.9183673E+00  0.0000000E+00  0.1428571E+00  0.1668681E-05  0.0000000E+00 -0.8492012E-01
  0.9591837E+00  0.0000000E+00  0.1428571E+00 -0.4513488E-05  0.0000000E+00 -0.8492068E-01
  0.1000000E+01  0.0000000E+00  0.1428571E+00 -0.1069267E-04  0.0000000E+00 -0.8492409E-01
  0.1040816E+01  0.0000000E+00  0.1428571E+00 -0.1677583E-04  0.0000000E+00 -0.8493031E-01
  0.1081633E+01  0.0000000E+00  0.1428571E+00 -0.2263771E-04  0.0000000E+00 -0.8493927E-01
  0.1122449E+01  0.0000000E+00  0.1428571E+00 -0.2817718E-04  0.0000000E+00 -0.8495084E-01
  0.1163265E+01  0.0000000E+00  0.1428571E+00 -0.3328835E-04  0.0000000E+00 -0.8496485E-01
  0.1204082E+01  0.0000000E+00  0.1428571E+00 -0.3789233E-04  0.0000000E+00 -0.8498108E-01
  0.1244898E+01  0.0000000E+00  0.1428571E+00 -0.4192368E-04  0.0000000E+00 -0.8499929E-01
  0.1285714E+01  0.0000000E+00  0.1428571E+00 -0.4532381E-04  0.0000000E+00 -0.8501919E-01
  0.1326531E+01  0.0000000E+00  0.1428571E+00 -0.4804262E-04  0.0000000E+00 -0.8504049E-01
  0.1367347E+01  0.0000000E+00  0.1428571E+00 -0.5004056E-04  0.0000000E+00 -0.8506286E-01
  0.1408163E+01  0.0000000E+00  0.1428571E+00 -0.5129181E-04  0.0000000E+00 -0.8508596E-01
  0.1448980E+01  0.0000000E+00  0.1428571E+00 -0.5178598E-04  0.0000000E+00 -0.8510945E-01
  0.1489796E+01  0.0000000E+00  0.1428571E+00 -0.5152550E-04  0.0000000E+00 -0.8513299E-01
  0.1530612E+01  0.0000000E+00  0.1428571E+00 -0.5052361E-04  0.0000000E+00 -0.8515623E-01
  0.1571429E+01  0.0000000E+00  0.1428571E+00 -0.4880368E-04  0.0000000E+00 -0.8517884E-01
  0.1612245E+01  0.0000000E+00  0.1428571E+00 -0.4640021E-04  0.0000000E+00 -0.8520051E-01
  0.1653061E+01  0.0000000E+00  0.1428571E+00 -0.4335689E-04  0.0000000E+00 -0.8522092E-01
  0.1693878E+01  0.0000000E+00  0.1428571E+00 -0.3972379E-04  0.0000000E+00 -0.8523982E-01
  0.1734694E+01  0.0000000E+00  0.1428571E+00 -0.3555635E-04  0.0000000E+00 -0.8525693E-01
  0.1775510E+01  0.0000000E+00  0.1428571E+00 -0.3091537E-04  0.0000000E+00 -0.8527204E-01
  0.1816326E+01  0.0000000E+00  0.1428571E+00 -0.2586540E-04  0.0000000E+00 -0.8528494E-01
  0.1857143E+01  0.0000000E+00  0.1428571E+00 -0.2047454E-04  0.0000000E+00 -0.8529546E-01
  0.1897959E+01  0.0000000E+00  0.1428571E+00 -0.1481501E-04  0.0000000E+00 -0.8530348E-01
  0.1938776E+01  0.0000000E+00  0.1428571E+00 -0.8963871E-05  0.0000000E+00 -0.8530888E-01
  0.1989796E+01  0.0000000E+00  0.1428571E+00 -0.3001867E-05  0.0000000E+00 -0.8531160E-01
  0.2040816E-01  0.0000000E+00  0.1836735E+00  0.3330684E-05  0.0000000E+00 -0.8520421E-01
  0.6122449E-01  0.0000000E+00  0.1836735E+00  0.9936114E-05  0.0000000E+00 -0.8520160E-01
  0.1020408E+00  0.0000000E+00  0.1836735E+00  0.1638792E-04  0.0000000E+00 -0.8519640E-01
  0.1428571E+00  0.0000000E+00  0.1836735E+00  0.2256267E-04  0.0000000E+00 -0.8518871E-01
  0.1836735E+00  0.0000000E+00  0.1836735E+00  0.2835325E-04  0.0000000E+00 -0.8517865E-01
  0.2244898E+00  0.0000000E+00  0.1836735E+00  0.3364846E-04  0.0000000E+00 -0.8516640E-01
  0.2653061E+00  0.0000000E+00  0.1836735E+00  0.3835747E-04  0.0000000E+00 -0.8515217E-01
  0.3061225E+00  0.0000000E+00  0.1836735E+00  0.4239854E-04  0.0000000E+00 -0.8513619E-01
  0.3469388E+00  0.0000000E+00  0.1836735E+00  0.4569391E-04  0.0000000E+00 -0.8511875E-01
  0.3877551E+00  0.0000000E+00  0.1836735E+00  0.4817267E-04  0.0000000E+00 -0.8510015E-01
  0.4285714E+00  0.0000000E+00  0.1836735E+00  0.4977528E-04  0.0000000E+00 -0.8508072E-01
  0.4693878E+00  0.0000000E+00  0.1836735E+00  0.5045692E-04  0.0000000E+00 -0.8506083E-01
  0.5102041E+00  0.0000000E+00  0.1836735E+00  0.5018962E-04  0.0000000E+00 -0.8504083E-01
  0.5510204E+00  0.0000000E+00  0.1836735E+00  0.4896359E-04  0.0000000E+00 -0.8502111E-01
  0.5918368E+00  0.0000000E+00  0.1836735E+00  0.4678789E-04  0.0000000E+00 -0.8500205E-01
  0.6326531E+00  0.0000000E+00  0.1836735E+00  0.4369051E-04  0.0000000E+00 -0.8498402E-01
  0.6734694E+00  0.0000000E+00  0.1836735E+00  0.3971776E-04  0.0000000E+00 -0.8496738E-01
  0.7142857E+00  0.0000000E+00  0.1836735E+00  0.3493319E-04  0.0000000E+00 -0.8495247E-01
  0.7551020E+00  0.0000000E+00  0.1836735E+00  0.2941602E-04  0.0000000E+00 -0.8493959E-01
  0.7959183E+00  0.0000000E+00  0.1836735E+00  0.2326015E-04  0.0000000E+00 -0.8492902E-01
  0.8367347E+00  0.0000000E+00  0.1836735E+00  0.1657558E-04  0.0000000E+00 -0.8492099E-01
  0.8775510E+00  0.0000000E+00  0.1836735E+00  0.9489448E-05  0.0000000E+00 -0.8491570E-01
  0.9183673E+00  0.0000000E+00  0.1836735E+00  0.2140143E-05  0.0000000E+00 -0.8491326E-01
  0.9591837E+00  0.0000000E+00  0.1836735E+00 -0.5344283E-05  0.0000000E+00 -0.8491376E-01
  0.1000000E+01  0.0000000E+00  0.1836735E+00 -0.1282372E-04  0.0000000E+00 -0.8491723E-01
  0.1040816E+01  0.0000000E+00  0.1836735E+00 -0.2018330E-04  0.0000000E+00 -0.8492363E-01
  0.1081633E+01  0.0000000E+00  0.1836735E+00 -0.2727202E-04  0.0000000E+00 -0.8493289E-01
  0.1122449E+01  0.0000000E+00  0.1836735E+00 -0.3396659E-04  0.0000000E+00 -0.8494487E-01
  0.1163265E+01  0.0000000E+00  0.1836735E+00 -0.4014190E-04  0.0000000E+00 -0.8495939E-01
  0.1204082E+01  0.0000000E+00  0.1836735E+00 -0.4570247E-04  0.0000000E+00 -0.8497622E-01
  0.1244898E+01  0.0000000E+00  0.1836735E+00 -0.5056766E-04  0.0000000E+00 -0.8499510E-01
  0.1285714E+01  0.0000000E+00  0.1836735E+00 -0.5466571E-04  0.0000000E+00 -0.8501574E-01
  0.1326531E+01  0.0000000E+00  0.1836735E+00 -0.5793729E-04  0.0000000E+00 -0.8503782E-01
  0.1367347E+01  0.0000000E+00  0.1836735E+00 -0.6033697E-04  0.0000000E+00 -0.8506101E-01
  0.1408163E+01  0.0000000E+00  0.1836735E+00 -0.6183436E-04  0.0000000E+00 -0.8508494E-01
  0.1448980E+01  0.0000000E+00  0.1836735E+00 -0.6241663E-04  0.0000000E+00 -0.8510927E-01
  0.1489796E+01  0.0000000E+00  0.1836735E+00 -0.6208789E-04  0.0000000E+00 -0.8513364E-01
  0.1530612E+01  0.0000000E+00  0.1836735E+00 -0.6086643E-04  0.0000000E+00 -0.8515768E-01
  0.1571429E+01  0.0000000E+00  0.1836735E+00 -0.5878176E-04  0.0000000E+00 -0.8518107E-01
  0.1612245E+01  0.0000000E+00  0.1836735E+00 -0.5587509E-04  0.0000000E+00 -0.8520347E-01
  0.1653061E+01  0.0000000E+00  0.1836735E+00 -0.5219896E-04  0.0000000E+00 -0.8522457E-01
  0.1693878E+01  0.0000000E+00  0.1836735E+00 -0.4781501E-04  0.0000000E+00 -0.8524408E-01
  0.1734694E+01  0.0000000E+00  0.1836735E+00 -0.4279117E-04  0.0000000E+00 -0.8526175E-01
  0.1775510E+01  0.0000000E+00  0.1836735E+00 -0.3720056E-04  0.0000000E+00 -0.8527734E-01
  0.1816326E+01  0.0000000E+00  0.1836735E+00 -0.3112004E-04  0.0000000E+00 -0.8529066E-01
  0.1857143E+01  0.0000000E+00  0.1836735E+00 -0.2463104E-04  0.0000000E+00 -0.8530152E-01
  0.1897959E+01  0.0000000E+00  0.1836735E+00 -0.1782071E-04  0.0000000E+00 -0.8530979E-01
  0.1938776E+01  0.0000000E+00  0.1836735E+00 -0.1078159E-04  0.0000000E+00 -0.8531536E-01
  0.1989796E+01  0.0000000E+00  0.1836735E+00 -0.3610560E-05  0.0000000E+00 -0.8531816E-01
  0.2040816E-01  0.0000000E+00  0.2244898E+00  0.3874897E-05  0.0000000E+00 -0.8521132E-01
  0.6122449E-01  0.0000000E+00  0.2244898E+00  0.1156027E-04  0.0000000E+00 -0.8520858E-01
  0.1020408E+00  0.0000000E+00  0.2244898E+00  0.1906699E-04  0.0000000E+00 -0.8520315E-01
  0.1428571E+00  0.0000000E+00  0.2244898E+00  0.2625380E-04  0.0000000E+00 -0.8519510E-01
  0.1836735E+00  0.0000000E+00  0.2244898E+00  0.3299703E-04  0.0000000E+00 -0.8518458E-01
  0.2244898E+00  0.0000000E+00  0.2244898E+00  0.3916940E-04  0.0000000E+00 -0.8517175E-01
  0.2653061E+00  0.0000000E+00  0.2244898E+00  0.4466480E-04  0.0000000E+00 -0.8515684E-01
  0.3061225E+00  0.0000000E+00  0.2244898E+00  0.4938694E-04  0.0000000E+00 -0.8514009E-01
  0.3469388E+00  0.0000000E+00  0.2244898E+00  0.5324435E-04  0.0000000E+00 -0.8512180E-01
  0.3877551E+00  0.0000000E+00  0.2244898E+00  0.5615364E-04  0.0000000E+00 -0.8510228E-01
  0.4285714E+00  0.0000000E+00  0.2244898E+00  0.5804449E-04  0.0000000E+00 -0.8508188E-01
  0.4693878E+00  0.0000000E+00  0.2244898E+00  0.5886339E-04  0.0000000E+00 -0.8506097E-01
  0.5102041E+00  0.0000000E+00  0.2244898E+00  0.5857627E-04  0.0000000E+00 -0.8503994E-01
  0.5510204E+00  0.0000000E+00  0.2244898E+00  0.5717026E-04  0.0000000E+00 -0.8501919E-01
  0.5918368E+00  0.0000000E+00  0.2244898E+00  0.5465481E-04  0.0000000E+00 -0.8499911E-01
  0.6326531E+00  0.0000000E+00  0.2244898E+00  0.5106179E-04  0.0000000E+00 -0.8498010E-01
  0.6734694E+00  0.0000000E+00  0.2244898E+00  0.4644458E-04  0.0000000E+00 -0.8496254E-01
  0.7142857E+00  0.0000000E+00  0.2244898E+00  0.4087687E-04  0.0000000E+00 -0.8494679E-01
  0.7551020E+00  0.0000000E+00  0.2244898E+00  0.3445130E-04  0.0000000E+00 -0.8493317E-01
  0.7959183E+00  0.0000000E+00  0.2244898E+00  0.2727840E-04  0.0000000E+00 -0.8492197E-01
  0.8367347E+00  0.0000000E+00  0.2244898E+00  0.1948739E-04  0.0000000E+00 -0.8491344E-01
  0.8775510E+00  0.0000000E+00  0.2244898E+00  0.1122615E-04  0.0000000E+00 -0.8490778E-01
  0.9183673E+00  0.0000000E+00  0.2244898E+00  0.2658073E-05  0.0000000E+00 -0.8490512E-01
  0.9591837E+00  0.0000000E+00  0.2244898E+00 -0.6066989E-05  0.0000000E+00 -0.8490555E-01
  0.1000000E+01  0.0000000E+00  0.2244898E+00 -0.1478382E-04  0.0000000E+00 -0.8490910E-01
  0.1040816E+01  0.0000000E+00  0.2244898E+00 -0.2335639E-04  0.0000000E+00 -0.8491572E-01
  0.1081633E+01  0.0000000E+00  0.2244898E+00 -0.3161009E-04  0.0000000E+00 -0.8492534E-01
  0.1122449E+01  0.0000000E+00  0.2244898E+00 -0.3939984E-04  0.0000000E+00 -0.8493781E-01
  0.1163265E+01  0.0000000E+00  0.2244898E+00 -0.4658124E-04  0.0000000E+00 -0.8495294E-01
  0.1204082E+01  0.0000000E+00  0.2244898E+00 -0.5304351E-04  0.0000000E+00 -0.8497048E-01
  0.1244898E+01  0.0000000E+00  0.2244898E+00 -0.5869260E-04  0.0000000E+00 -0.8499016E-01
  0.1285714E+01  0.0000000E+00  0.2244898E+00 -0.6344440E-04  0.0000000E+00 -0.8501167E-01
  0.1326531E+01  0.0000000E+00  0.2244898E+00 -0.6722992E-04  0.0000000E+00 -0.8503468E-01
  0.1367347E+01  0.0000000E+00  0.2244898E+00 -0.6999886E-04  0.0000000E+00 -0.8505882E-01
  0.1408163E+01  0.0000000E+00  0.2244898E+00 -0.7171875E-04  0.0000000E+00 -0.8508374E-01
  0.1448980E+01  0.0000000E+00  0.2244898E+00 -0.7237538E-04  0.0000000E+00 -0.8510906E-01
  0.1489796E+01  0.0000000E+00  0.2244898E+00 -0.7197367E-04  0.0000000E+00 -0.8513440E-01
  0.1530612E+01  0.0000000E+00  0.2244898E+00 -0.7053659E-04  0.0000000E+00 -0.8515940E-01
  0.1571429E+01  0.0000000E+00  0.2244898E+00 -0.6810114E-04  0.0000000E+00 -0.8518370E-01
  0.1612245E+01  0.0000000E+00  0.2244898E+00 -0.6471652E-04  0.0000000E+00 -0.8520695E-01
  0.1653061E+01  0.0000000E+00  0.2244898E+00 -0.6044341E-04  0.0000000E+00 -0.8522885E-01
  0.1693878E+01  0.0000000E+00  0.2244898E+00 -0.5535319E-04  0.0000000E+00 -0.8524910E-01
  0.1734694E+01  0.0000000E+00  0.2244898E+00 -0.4952572E-04  0.0000000E+00 -0.8526742E-01
  0.1775510E+01  0.0000000E+00  0.2244898E+00 -0.4304678E-04  0.0000000E+00 -0.8528359E-01
  0.1816326E+01  0.0000000E+00  0.2244898E+00 -0.3600516E-04  0.0000000E+00 -0.8529738E-01
  0.1857143E+01  0.0000000E+00  0.2244898E+00 -0.2849383E-04  0.0000000E+00 -0.8530863E-01
  0.1897959E+01  0.0000000E+00  0.2244898E+00 -0.2061320E-04  0.0000000E+00 -0.8531720E-01
  0.1938776E+01  0.0000000E+00  0.2244898E+00 -0.1246983E-04  0.0000000E+00 -0.8532296E-01
  0.1989796E+01  0.0000000E+00  0.2244898E+00 -0.4175360E-05  0.0000000E+00 -0.8532586E-01
  0.2040816E-01  0.0000000E+00  0.2653061E+00  0.4401883E-05  0.0000000E+00 -0.8521947E-01
  0.6122449E-01  0.0000000E+00  0.2653061E+00  0.1313313E-04  0.0000000E+00 -0.8521660E-01
  0.1020408E+00  0.0000000E+00  0.2653061E+00  0.2166231E-04  0.0000000E+00 -0.8521089E-01
  0.1428571E+00  0.0000000E+00  0.2653061E+00  0.2983165E-04  0.0000000E+00 -0.8520244E-01
  0.1836735E+00  0.0000000E+00  0.2653061E+00  0.3750184E-04  0.0000000E+00 -0.8519138E-01
  0.2244898E+00  0.0000000E+00  0.2653061E+00  0.4453028E-04  0.0000000E+00 -0.8517790E-01
  0.2653061E+00  0.0000000E+00  0.2653061E+00  0.5079607E-04  0.0000000E+00 -0.8516221E-01
  0.3061225E+00  0.0000000E+00  0.2653061E+00  0.5618867E-04  0.0000000E+00 -0.8514459E-01
  0.3469388E+00  0.0000000E+00  0.2653061E+00  0.6060302E-04  0.0000000E+00 -0.8512532E-01
  0.3877551E+00  0.0000000E+00  0.2653061E+00  0.6394310E-04  0.0000000E+00 -0.8510475E-01
  0.4285714E+00  0.0000000E+00  0.2653061E+00  0.6612741E-04  0.0000000E+00 -0.8508323E-01
  0.4693878E+00  0.0000000E+00  0.2653061E+00  0.6709322E-04  0.0000000E+00 -0.8506115E-01
  0.5102041E+00  0.0000000E+00  0.2653061E+00  0.6679963E-04  0.0000000E+00 -0.8503893E-01
  0.5510204E+00  0.0000000E+00  0.2653061E+00  0.6522984E-04  0.0000000E+00 -0.8501698E-01
  0.5918368E+00  0.0000000E+00  0.2653061E+00  0.6239286E-04  0.0000000E+00 -0.8499573E-01
  0.6326531E+00  0.0000000E+00  0.2653061E+00  0.5832401E-04  0.0000000E+00 -0.8497559E-01
  0.6734694E+00  0.0000000E+00  0.2653061E+00  0.5308364E-04  0.0000000E+00 -0.8495698E-01
  0.7142857E+00  0.0000000E+00  0.2653061E+00  0.4675526E-04  0.0000000E+00 -0.8494025E-01
  0.7551020E+00  0.0000000E+00  0.2653061E+00  0.3944438E-04  0.0000000E+00 -0.8492578E-01
  0.7959183E+00  0.0000000E+00  0.2653061E+00  0.3127817E-04  0.0000000E+00 -0.8491385E-01
  0.8367347E+00  0.0000000E+00  0.2653061E+00  0.2240577E-04  0.0000000E+00 -0.8490475E-01
  0.8775510E+00  0.0000000E+00  0.2653061E+00  0.1299565E-04  0.0000000E+00 -0.8489866E-01
  0.9183673E+00  0.0000000E+00  0.2653061E+00  0.3235278E-05  0.0000000E+00 -0.8489575E-01
  0.9591837E+00  0.0000000E+00  0.2653061E+00 -0.6703048E-05  0.0000000E+00 -0.8489610E-01
  0.1000000E+01  0.0000000E+00  0.2653061E+00 -0.1662859E-04  0.0000000E+00 -0.8489974E-01
  0.1040816E+01  0.0000000E+00  0.2653061E+00 -0.2638361E-04  0.0000000E+00 -0.8490662E-01
  0.1081633E+01  0.0000000E+00  0.2653061E+00 -0.3577121E-04  0.0000000E+00 -0.8491666E-01
  0.1122449E+01  0.0000000E+00  0.2653061E+00 -0.4462546E-04  0.0000000E+00 -0.8492969E-01
  0.1163265E+01  0.0000000E+00  0.2653061E+00 -0.5278214E-04  0.0000000E+00 -0.8494552E-01
  0.1204082E+01  0.0000000E+00  0.2653061E+00 -0.6011469E-04  0.0000000E+00 -0.8496389E-01
  0.1244898E+01  0.0000000E+00  0.2653061E+00 -0.6651704E-04  0.0000000E+00 -0.8498449E-01
  0.1285714E+01  0.0000000E+00  0.2653061E+00 -0.7189463E-04  0.0000000E+00 -0.8500701E-01
  0.1326531E+01  0.0000000E+00  0.2653061E+00 -0.7616895E-04  0.0000000E+00 -0.8503108E-01