title = "dataset feddes"
variables = "x", "y", "z", "vx", "vy", "vz"
zone t = "velocities, solution time =  2.100E+01 days        " i =   49, j =   49, k =    1,  f=point
  0.2040816E-01  0.0000000E+00  0.2040816E-01  0.1701114E-06  0.0000000E+00 -0.8598658E-01
  0.6122449E-01  0.0000000E+00  0.2040816E-01  0.5081668E-06  0.0000000E+00 -0.8598581E-01
  0.1020408E+00  0.0000000E+00  0.2040816E-01  0.8388514E-06  0.0000000E+00 -0.8598428E-01
  0.1428571E+00  0.0000000E+00  0.2040816E-01  0.1156330E-05  0.0000000E+00 -0.8598201E-01
  0.1836735E+00  0.0000000E+00  0.2040816E-01  0.1454509E-05  0.0000000E+00 -0.8597904E-01
  0.2244898E+00  0.0000000E+00  0.2040816E-01  0.1729229E-05  0.0000000E+00 -0.8597542E-01
  0.2653061E+00  0.0000000E+00  0.2040816E-01  0.1976341E-05  0.0000000E+00 -0.8597120E-01
  0.3061225E+00  0.0000000E+00  0.2040816E-01  0.2191021E-05  0.0000000E+00 -0.8596647E-01
  0.3469388E+00  0.0000000E+00  0.2040816E-01  0.2369449E-05  0.0000000E+00 -0.8596128E-01
  0.3877551E+00  0.0000000E+00  0.2040816E-01  0.2508587E-05  0.0000000E+00 -0.8595573E-01
  0.4285714E+00  0.0000000E+00  0.2040816E-01  0.2605810E-05  0.0000000E+00 -0.8594992E-01
  0.4693878E+00  0.0000000E+00  0.2040816E-01  0.2658991E-05  0.0000000E+00 -0.8594393E-01
  0.5102041E+00  0.0000000E+00  0.2040816E-01  0.2666692E-05  0.0000000E+00 -0.8593788E-01
  0.5510204E+00  0.0000000E+00  0.2040816E-01  0.2628259E-05  0.0000000E+00 -0.8593186E-01
  0.5918368E+00  0.0000000E+00  0.2040816E-01  0.2543834E-05  0.0000000E+00 -0.8592598E-01
  0.6326531E+00  0.0000000E+00  0.2040816E-01  0.2414349E-05  0.0000000E+00 -0.8592034E-01
  0.6734694E+00  0.0000000E+00  0.2040816E-01  0.2241528E-05  0.0000000E+00 -0.8591505E-01
  0.7142857E+00  0.0000000E+00  0.2040816E-01  0.2027886E-05  0.0000000E+00 -0.8591019E-01
  0.7551020E+00  0.0000000E+00  0.2040816E-01  0.1776713E-05  0.0000000E+00 -0.8590587E-01
  0.7959183E+00  0.0000000E+00  0.2040816E-01  0.1492044E-05  0.0000000E+00 -0.8590215E-01
  0.8367347E+00  0.0000000E+00  0.2040816E-01  0.1178594E-05  0.0000000E+00 -0.8589911E-01
  0.8775510E+00  0.0000000E+00  0.2040816E-01  0.8416784E-06  0.0000000E+00 -0.8589682E-01
  0.9183673E+00  0.0000000E+00  0.2040816E-01  0.4871101E-06  0.0000000E+00 -0.8589530E-01
  0.9591837E+00  0.0000000E+00  0.2040816E-01  0.1210864E-06  0.0000000E+00 -0.8589461E-01
  0.1000000E+01  0.0000000E+00  0.2040816E-01 -0.2499574E-06  0.0000000E+00 -0.8589476E-01
  0.1040816E+01  0.0000000E+00  0.2040816E-01 -0.6190671E-06  0.0000000E+00 -0.8589575E-01
  0.1081633E+01  0.0000000E+00  0.2040816E-01 -0.9805452E-06  0.0000000E+00 -0.8589757E-01
  0.1122449E+01  0.0000000E+00  0.2040816E-01 -0.1328018E-05  0.0000000E+00 -0.8590019E-01
  0.1163265E+01  0.0000000E+00  0.2040816E-01 -0.1654207E-05  0.0000000E+00 -0.8590358E-01
  0.1204082E+01  0.0000000E+00  0.2040816E-01 -0.1954262E-05  0.0000000E+00 -0.8590768E-01
  0.1244898E+01  0.0000000E+00  0.2040816E-01 -0.2223622E-05  0.0000000E+00 -0.8591243E-01
  0.1285714E+01  0.0000000E+00  0.2040816E-01 -0.2457044E-05  0.0000000E+00 -0.8591776E-01
  0.1326531E+01  0.0000000E+00  0.2040816E-01 -0.2650697E-05  0.0000000E+00 -0.8592356E-01
  0.1367347E+01  0.0000000E+00  0.2040816E-01 -0.2801839E-05  0.0000000E+00 -0.8592976E-01
  0.1408163E+01  0.0000000E+00  0.2040816E-01 -0.2908314E-05  0.0000000E+00 -0.8593626E-01
  0.1448980E+01  0.0000000E+00  0.2040816E-01 -0.2968609E-05  0.0000000E+00 -0.8594294E-01
  0.1489796E+01  0.0000000E+00  0.2040816E-01 -0.2982019E-05  0.0000000E+00 -0.8594970E-01
  0.1530612E+01  0.0000000E+00  0.2040816E-01 -0.2948686E-05  0.0000000E+00 -0.8595645E-01
  0.1571429E+01  0.0000000E+00  0.2040816E-01 -0.2869527E-05  0.0000000E+00 -0.8596306E-01
  0.1612245E+01  0.0000000E+00  0.2040816E-01 -0.2746158E-05  0.0000000E+00 -0.8596945E-01
  0.1653061E+01  0.0000000E+00  0.2040816E-01 -0.2580824E-05  0.0000000E+00 -0.8597551E-01
  0.1693878E+01  0.0000000E+00  0.2040816E-01 -0.2376354E-05  0.0000000E+00 -0.8598114E-01
  0.1734694E+01  0.0000000E+00  0.2040816E-01 -0.2136104E-05  0.0000000E+00 -0.8598627E-01
  0.1775510E+01  0.0000000E+00  0.2040816E-01 -0.1863902E-05  0.0000000E+00 -0.8599082E-01
  0.1816326E+01  0.0000000E+00  0.2040816E-01 -0.1563983E-05  0.0000000E+00 -0.8599472E-01
  0.1857143E+01  0.0000000E+00  0.2040816E-01 -0.1240928E-05  0.0000000E+00 -0.8599791E-01
  0.1897959E+01  0.0000000E+00  0.2040816E-01 -0.8996061E-06  0.0000000E+00 -0.8600034E-01
  0.1938776E+01  0.0000000E+00  0.2040816E-01 -0.5451101E-06  0.0000000E+00 -0.8600199E-01
  0.1989796E+01  0.0000000E+00  0.2040816E-01 -0.1827302E-06  0.0000000E+00 -0.8600281E-01
  0.2040816E-01  0.0000000E+00  0.6122449E-01  0.4665204E-06  0.0000000E+00 -0.8598725E-01
  0.6122449E-01  0.0000000E+00  0.6122449E-01  0.1393435E-05  0.0000000E+00 -0.8598647E-01
  0.1020408E+00  0.0000000E+00  0.6122449E-01  0.2299545E-05  0.0000000E+00 -0.8598491E-01
  0.1428571E+00  0.0000000E+00  0.6122449E-01  0.3169487E-05  0.0000000E+00 -0.8598261E-01
  0.1836735E+00  0.0000000E+00  0.6122449E-01  0.3987226E-05  0.0000000E+00 -0.8597960E-01
  0.2244898E+00  0.0000000E+00  0.6122449E-01  0.4740595E-05  0.0000000E+00 -0.8597593E-01
  0.2653061E+00  0.0000000E+00  0.6122449E-01  0.5418037E-05  0.0000000E+00 -0.8597166E-01
  0.3061225E+00  0.0000000E+00  0.6122449E-01  0.6006753E-05  0.0000000E+00 -0.8596685E-01
  0.3469388E+00  0.0000000E+00  0.6122449E-01  0.6496297E-05  0.0000000E+00 -0.8596159E-01
  0.3877551E+00  0.0000000E+00  0.6122449E-01  0.6878189E-05  0.0000000E+00 -0.8595596E-01
  0.4285714E+00  0.0000000E+00  0.6122449E-01  0.7145169E-05  0.0000000E+00 -0.8595006E-01
  0.4693878E+00  0.0000000E+00  0.6122449E-01  0.7291414E-05  0.0000000E+00 -0.8594398E-01
  0.5102041E+00  0.0000000E+00  0.6122449E-01  0.7312989E-05  0.0000000E+00 -0.8593784E-01
  0.5510204E+00  0.0000000E+00  0.6122449E-01  0.7208081E-05  0.0000000E+00 -0.8593172E-01
  0.5918368E+00  0.0000000E+00  0.6122449E-01  0.6977047E-05  0.0000000E+00 -0.8592575E-01
  0.6326531E+00  0.0000000E+00  0.6122449E-01  0.6622413E-05  0.0000000E+00 -0.8592003E-01
  0.6734694E+00  0.0000000E+00  0.6122449E-01  0.6148882E-05  0.0000000E+00 -0.8591465E-01
  0.7142857E+00  0.0000000E+00  0.6122449E-01  0.5563334E-05  0.0000000E+00 -0.8590972E-01
  0.7551020E+00  0.0000000E+00  0.6122449E-01  0.4874784E-05  0.0000000E+00 -0.8590532E-01
  0.7959183E+00  0.0000000E+00  0.6122449E-01  0.4094289E-05  0.0000000E+00 -0.8590154E-01
  0.8367347E+00  0.0000000E+00  0.6122449E-01  0.3234787E-05  0.0000000E+00 -0.8589845E-01
  0.8775510E+00  0.0000000E+00  0.6122449E-01  0.2310855E-05  0.0000000E+00 -0.8589611E-01
  0.9183673E+00  0.0000000E+00  0.6122449E-01  0.1338419E-05  0.0000000E+00 -0.8589457E-01
  0.9591837E+00  0.0000000E+00  0.6122449E-01  0.3347682E-06  0.0000000E+00 -0.8589387E-01
  0.1000000E+01  0.0000000E+00  0.6122449E-01 -0.6828854E-06  0.0000000E+00 -0.8589401E-01
  0.1040816E+01  0.0000000E+00  0.6122449E-01 -0.1695665E-05  0.0000000E+00 -0.8589501E-01
  0.1081633E+01  0.0000000E+00  0.6122449E-01 -0.2686797E-05  0.0000000E+00 -0.8589685E-01
  0.1122449E+01  0.0000000E+00  0.6122449E-01 -0.3639351E-05  0.0000000E+00 -0.8589951E-01
  0.1163265E+01  0.0000000E+00  0.6122449E-01 -0.4534206E-05  0.0000000E+00 -0.8590294E-01
  0.1204082E+01  0.0000000E+00  0.6122449E-01 -0.5357159E-05  0.0000000E+00 -0.8590710E-01
  0.1244898E+01  0.0000000E+00  0.6122449E-01 -0.6095467E-05  0.0000000E+00 -0.8591192E-01
  0.1285714E+01  0.0000000E+00  0.6122449E-01 -0.6735282E-05  0.0000000E+00 -0.8591732E-01
  0.1326531E+01  0.0000000E+00  0.6122449E-01 -0.7266140E-05  0.0000000E+00 -0.8592321E-01
  0.1367347E+01  0.0000000E+00  0.6122449E-01 -0.7680364E-05  0.0000000E+00 -0.8592949E-01
  0.1408163E+01  0.0000000E+00  0.6122449E-01 -0.7972006E-05  0.0000000E+00 -0.8593608E-01
  0.1448980E+01  0.0000000E+00  0.6122449E-01 -0.8136975E-05  0.0000000E+00 -0.8594285E-01
  0.1489796E+01  0.0000000E+00  0.6122449E-01 -0.8173404E-05  0.0000000E+00 -0.8594971E-01
  0.1530612E+01  0.0000000E+00  0.6122449E-01 -0.8081713E-05  0.0000000E+00 -0.8595655E-01
  0.1571429E+01  0.0000000E+00  0.6122449E-01 -0.7864435E-05  0.0000000E+00 -0.8596326E-01
  0.1612245E+01  0.0000000E+00  0.6122449E-01 -0.7526010E-05  0.0000000E+00 -0.8596973E-01
  0.1653061E+01  0.0000000E+00  0.6122449E-01 -0.7072615E-05  0.0000000E+00 -0.8597587E-01
  0.1693878E+01  0.0000000E+00  0.6122449E-01 -0.6512018E-05  0.0000000E+00 -0.8598158E-01
  0.1734694E+01  0.0000000E+00  0.6122449E-01 -0.5853434E-05  0.0000000E+00 -0.8598678E-01
  0.1775510E+01  0.0000000E+00  0.6122449E-01 -0.5107362E-05  0.0000000E+00 -0.8599138E-01
  0.1816326E+01  0.0000000E+00  0.6122449E-01 -0.4285408E-05  0.0000000E+00 -0.8599533E-01
  0.1857143E+01  0.0000000E+00  0.6122449E-01 -0.3400120E-05  0.0000000E+00 -0.8599856E-01
  0.1897959E+01  0.0000000E+00  0.6122449E-01 -0.2464819E-05  0.0000000E+00 -0.8600103E-01
  0.1938776E+01  0.0000000E+00  0.6122449E-01 -0.1493429E-05  0.0000000E+00 -0.8600269E-01
  0.1989796E+01  0.0000000E+00  0.6122449E-01 -0.5005904E-06  0.0000000E+00 -0.8600353E-01
  0.2040816E-01  0.0000000E+00  0.1020408E+00  0.7008913E-06  0.0000000E+00 -0.8598841E-01
  0.6122449E-01  0.0000000E+00  0.1020408E+00  0.2093406E-05  0.0000000E+00 -0.8598761E-01
  0.1020408E+00  0.0000000E+00  0.1020408E+00  0.3453989E-05  0.0000000E+00 -0.8598601E-01
  0.1428571E+00  0.0000000E+00  0.1020408E+00  0.4760198E-05  0.0000000E+00 -0.8598366E-01
  0.1836735E+00  0.0000000E+00  0.1020408E+00  0.5989043E-05  0.0000000E+00 -0.8598058E-01
  0.2244898E+00  0.0000000E+00  0.1020408E+00  0.7121295E-05  0.0000000E+00 -0.8597681E-01
  0.2653061E+00  0.0000000E+00  0.1020408E+00  0.8139265E-05  0.0000000E+00 -0.8597243E-01
  0.3061225E+00  0.0000000E+00  0.1020408E+00  0.9024349E-05  0.0000000E+00 -0.8596751E-01
  0.3469388E+00  0.0000000E+00  0.1020408E+00  0.9760883E-05  0.0000000E+00 -0.8596212E-01
  0.3877551E+00  0.0000000E+00  0.1020408E+00  0.1033588E-04  0.0000000E+00 -0.8595635E-01
  0.4285714E+00  0.0000000E+00  0.1020408E+00  0.1073831E-04  0.0000000E+00 -0.8595030E-01
  0.4693878E+00  0.0000000E+00  0.1020408E+00  0.1095941E-04  0.0000000E+00 -0.8594406E-01
  0.5102041E+00  0.0000000E+00  0.1020408E+00  0.1099325E-04  0.0000000E+00 -0.8593776E-01
  0.5510204E+00  0.0000000E+00  0.1020408E+00  0.1083703E-04  0.0000000E+00 -0.8593148E-01
  0.5918368E+00  0.0000000E+00  0.1020408E+00  0.1049121E-04  0.0000000E+00 -0.8592535E-01
  0.6326531E+00  0.0000000E+00  0.1020408E+00  0.9959486E-05  0.0000000E+00 -0.8591947E-01
  0.6734694E+00  0.0000000E+00  0.1020408E+00  0.9248871E-05  0.0000000E+00 -0.8591395E-01
  0.7142857E+00  0.0000000E+00  0.1020408E+00  0.8369652E-05  0.0000000E+00 -0.8590888E-01
  0.7551020E+00  0.0000000E+00  0.1020408E+00  0.7335351E-05  0.0000000E+00 -0.8590436E-01
  0.7959183E+00  0.0000000E+00  0.1020408E+00  0.6162582E-05  0.0000000E+00 -0.8590047E-01
  0.8367347E+00  0.0000000E+00  0.1020408E+00  0.4870807E-05  0.0000000E+00 -0.8589729E-01
  0.8775510E+00  0.0000000E+00  0.1020408E+00  0.3481954E-05  0.0000000E+00 -0.8589488E-01
  0.9183673E+00  0.0000000E+00  0.1020408E+00  0.2019940E-05  0.0000000E+00 -0.8589329E-01
  0.9591837E+00  0.0000000E+00  0.1020408E+00  0.5110223E-06  0.0000000E+00 -0.8589255E-01
  0.1000000E+01  0.0000000E+00  0.1020408E+00 -0.1018962E-05  0.0000000E+00 -0.8589269E-01
  0.1040816E+01  0.0000000E+00  0.1020408E+00 -0.2542281E-05  0.0000000E+00 -0.8589371E-01
  0.1081633E+01  0.0000000E+00  0.1020408E+00 -0.4032314E-05  0.0000000E+00 -0.8589559E-01
  0.1122449E+01  0.0000000E+00  0.1020408E+00 -0.5463855E-05  0.0000000E+00 -0.8589831E-01
  0.1163265E+01  0.0000000E+00  0.1020408E+00 -0.6809436E-05  0.0000000E+00 -0.8590183E-01
  0.1204082E+01  0.0000000E+00  0.1020408E+00 -0.8046566E-05  0.0000000E+00 -0.8590609E-01
  0.1244898E+01  0.0000000E+00  0.1020408E+00 -0.9155665E-05  0.0000000E+00 -0.8591102E-01
  0.1285714E+01  0.0000000E+00  0.1020408E+00 -0.1011668E-04  0.0000000E+00 -0.8591655E-01
  0.1326531E+01  0.0000000E+00  0.1020408E+00 -0.1091397E-04  0.0000000E+00 -0.8592258E-01
  0.1367347E+01  0.0000000E+00  0.1020408E+00 -0.1153576E-04  0.0000000E+00 -0.8592902E-01
  0.1408163E+01  0.0000000E+00  0.1020408E+00 -0.1197310E-04  0.0000000E+00 -0.8593576E-01
  0.1448980E+01  0.0000000E+00  0.1020408E+00 -0.1221996E-04  0.0000000E+00 -0.8594270E-01
  0.1489796E+01  0.0000000E+00  0.1020408E+00 -0.1227368E-04  0.0000000E+00 -0.8594972E-01
  0.1530612E+01  0.0000000E+00  0.1020408E+00 -0.1213498E-04  0.0000000E+00 -0.8595672E-01
  0.1571429E+01  0.0000000E+00  0.1020408E+00 -0.1180773E-04  0.0000000E+00 -0.8596358E-01
  0.1612245E+01  0.0000000E+00  0.1020408E+00 -0.1129866E-04  0.0000000E+00 -0.8597021E-01
  0.1653061E+01  0.0000000E+00  0.1020408E+00 -0.1061709E-04  0.0000000E+00 -0.8597649E-01
  0.1693878E+01  0.0000000E+00  0.1020408E+00 -0.9774764E-05  0.0000000E+00 -0.8598233E-01
  0.1734694E+01  0.0000000E+00  0.1020408E+00 -0.8785544E-05  0.0000000E+00 -0.8598764E-01
  0.1775510E+01  0.0000000E+00  0.1020408E+00 -0.7665222E-05  0.0000000E+00 -0.8599236E-01
  0.1816326E+01  0.0000000E+00  0.1020408E+00 -0.6431231E-05  0.0000000E+00 -0.8599639E-01
  0.1857143E+01  0.0000000E+00  0.1020408E+00 -0.5102384E-05  0.0000000E+00 -0.8599969E-01
  0.1897959E+01  0.0000000E+00  0.1020408E+00 -0.3698628E-05  0.0000000E+00 -0.8600221E-01
  0.1938776E+01  0.0000000E+00  0.1020408E+00 -0.2240805E-05  0.0000000E+00 -0.8600392E-01
  0.1989796E+01  0.0000000E+00  0.1020408E+00 -0.7509898E-06  0.0000000E+00 -0.8600477E-01
  0.2040816E-01  0.0000000E+00  0.1428571E+00  0.9062493E-06  0.0000000E+00 -0.8598998E-01
  0.6122449E-01  0.0000000E+00  0.1428571E+00  0.2706719E-05  0.0000000E+00 -0.8598915E-01
  0.1020408E+00  0.0000000E+00  0.1428571E+00  0.4465764E-05  0.0000000E+00 -0.8598751E-01
  0.1428571E+00  0.0000000E+00  0.1428571E+00  0.6154487E-05  0.0000000E+00 -0.8598508E-01
  0.1836735E+00  0.0000000E+00  0.1428571E+00  0.7743967E-05  0.0000000E+00 -0.8598190E-01
  0.2244898E+00  0.0000000E+00  0.1428571E+00  0.9208978E-05  0.0000000E+00 -0.8597801E-01
  0.2653061E+00  0.0000000E+00  0.1428571E+00  0.1052637E-04  0.0000000E+00 -0.8597349E-01
  0.3061225E+00  0.0000000E+00  0.1428571E+00  0.1167248E-04  0.0000000E+00 -0.8596840E-01
  0.3469388E+00  0.0000000E+00  0.1428571E+00  0.1262704E-04  0.0000000E+00 -0.8596283E-01
  0.3877551E+00  0.0000000E+00  0.1428571E+00  0.1337304E-04  0.0000000E+00 -0.8595687E-01
  0.4285714E+00  0.0000000E+00  0.1428571E+00  0.1389606E-04  0.0000000E+00 -0.8595061E-01
  0.4693878E+00  0.0000000E+00  0.1428571E+00  0.1418469E-04  0.0000000E+00 -0.8594417E-01
  0.5102041E+00  0.0000000E+00  0.1428571E+00  0.1423117E-04  0.0000000E+00 -0.8593764E-01
  0.5510204E+00  0.0000000E+00  0.1428571E+00  0.1403174E-04  0.0000000E+00 -0.8593115E-01
  0.5918368E+00  0.0000000E+00  0.1428571E+00  0.1358683E-04  0.0000000E+00 -0.8592480E-01
  0.6326531E+00  0.0000000E+00  0.1428571E+00  0.1290109E-04  0.0000000E+00 -0.8591871E-01
  0.6734694E+00  0.0000000E+00  0.1428571E+00  0.1198346E-04  0.0000000E+00 -0.8591298E-01
  0.7142857E+00  0.0000000E+00  0.1428571E+00  0.1084716E-04  0.0000000E+00 -0.8590773E-01
  0.7551020E+00  0.0000000E+00  0.1428571E+00  0.9509650E-05  0.0000000E+00 -0.8590304E-01
  0.7959183E+00  0.0000000E+00  0.1428571E+00  0.7992411E-05  0.0000000E+00 -0.8589900E-01
  0.8367347E+00  0.0000000E+00  0.1428571E+00  0.6320634E-05  0.0000000E+00 -0.8589570E-01
  0.8775510E+00  0.0000000E+00  0.1428571E+00  0.4522736E-05  0.0000000E+00 -0.8589319E-01
  0.9183673E+00  0.0000000E+00  0.1428571E+00  0.2629859E-05  0.0000000E+00 -0.8589153E-01
  0.9591837E+00  0.0000000E+00  0.1428571E+00  0.6757974E-06  0.0000000E+00 -0.8589075E-01
  0.1000000E+01  0.0000000E+00  0.1428571E+00 -0.1305338E-05  0.0000000E+00 -0.8589088E-01
  0.1040816E+01  0.0000000E+00  0.1428571E+00 -0.3278172E-05  0.0000000E+00 -0.8589192E-01
  0.1081633E+01  0.0000000E+00  0.1428571E+00 -0.5207763E-05  0.0000000E+00 -0.8589385E-01
  0.1122449E+01  0.0000000E+00  0.1428571E+00 -0.7060968E-05  0.0000000E+00 -0.8589666E-01
  0.1163265E+01  0.0000000E+00  0.1428571E+00 -0.8803017E-05  0.0000000E+00 -0.8590029E-01
  0.1204082E+01  0.0000000E+00  0.1428571E+00 -0.1040429E-04  0.0000000E+00 -0.8590468E-01
  0.1244898E+01  0.0000000E+00  0.1428571E+00 -0.1183905E-04  0.0000000E+00 -0.8590978E-01
  0.1285714E+01  0.0000000E+00  0.1428571E+00 -0.1308182E-04  0.0000000E+00 -0.8591549E-01
  0.1326531E+01  0.0000000E+00  0.1428571E+00 -0.1411244E-04  0.0000000E+00 -0.8592172E-01
  0.1367347E+01  0.0000000E+00  0.1428571E+00 -0.1491557E-04  0.0000000E+00 -0.8592836E-01
  0.1408163E+01  0.0000000E+00  0.1428571E+00 -0.1547967E-04  0.0000000E+00 -0.8593532E-01
  0.1448980E+01  0.0000000E+00  0.1428571E+00 -0.1579714E-04  0.0000000E+00 -0.8594248E-01
  0.1489796E+01  0.0000000E+00  0.1428571E+00 -0.1586471E-04  0.0000000E+00 -0.8594973E-01
  0.1530612E+01  0.0000000E+00  0.1428571E+00 -0.1568349E-04  0.0000000E+00 -0.8595695E-01
  0.1571429E+01  0.0000000E+00  0.1428571E+00 -0.1525861E-04  0.0000000E+00 -0.8596402E-01
  0.1612245E+01  0.0000000E+00  0.1428571E+00 -0.1459890E-04  0.0000000E+00 -0.8597085E-01
  0.1653061E+01  0.0000000E+00  0.1428571E+00 -0.1371655E-04  0.0000000E+00 -0.8597732E-01
  0.1693878E+01  0.0000000E+00  0.1428571E+00 -0.1262682E-04  0.0000000E+00 -0.8598334E-01
  0.1734694E+01  0.0000000E+00  0.1428571E+00 -0.1134771E-04  0.0000000E+00 -0.8598882E-01
  0.1775510E+01  0.0000000E+00  0.1428571E+00 -0.9899671E-05  0.0000000E+00 -0.8599367E-01
  0.1816326E+01  0.0000000E+00  0.1428571E+00 -0.8305250E-05  0.0000000E+00 -0.8599783E-01
  0.1857143E+01  0.0000000E+00  0.1428571E+00 -0.6588709E-05  0.0000000E+00 -0.8600123E-01
  0.1897959E+01  0.0000000E+00  0.1428571E+00 -0.4775711E-05  0.0000000E+00 -0.8600382E-01
  0.1938776E+01  0.0000000E+00  0.1428571E+00 -0.2893179E-05  0.0000000E+00 -0.8600557E-01
  0.1989796E+01  0.0000000E+00  0.1428571E+00 -0.9694578E-06  0.0000000E+00 -0.8600646E-01
  0.2040816E-01  0.0000000E+00  0.1836735E+00  0.1094026E-05  0.0000000E+00 -0.8599192E-01
  0.6122449E-01  0.0000000E+00  0.1836735E+00  0.3267239E-05  0.0000000E+00 -0.8599106E-01
  0.1020408E+00  0.0000000E+00  0.1836735E+00  0.5390543E-05  0.0000000E+00 -0.8598936E-01
  0.1428571E+00  0.0000000E+00  0.1836735E+00  0.7429196E-05  0.0000000E+00 -0.8598683E-01
  0.1836735E+00  0.0000000E+00  0.1836735E+00  0.9348843E-05  0.0000000E+00 -0.8598353E-01
  0.2244898E+00  0.0000000E+00  0.1836735E+00  0.1111892E-04  0.0000000E+00 -0.8597949E-01
  0.2653061E+00  0.0000000E+00  0.1836735E+00  0.1271130E-04  0.0000000E+00 -0.8597479E-01
  0.3061225E+00  0.0000000E+00  0.1836735E+00  0.1409766E-04  0.0000000E+00 -0.8596951E-01
  0.3469388E+00  0.0000000E+00  0.1836735E+00  0.1525348E-04  0.0000000E+00 -0.8596371E-01
  0.3877551E+00  0.0000000E+00  0.1836735E+00  0.1615801E-04  0.0000000E+00 -0.8595751E-01
  0.4285714E+00  0.0000000E+00  0.1836735E+00  0.1679366E-04  0.0000000E+00 -0.8595100E-01
  0.4693878E+00  0.0000000E+00  0.1836735E+00  0.1714648E-04  0.0000000E+00 -0.8594429E-01
  0.5102041E+00  0.0000000E+00  0.1836735E+00  0.1720690E-04  0.0000000E+00 -0.8593749E-01
  0.5510204E+00  0.0000000E+00  0.1836735E+00  0.1697019E-04  0.0000000E+00 -0.8593073E-01
  0.5918368E+00  0.0000000E+00  0.1836735E+00  0.1643660E-04  0.0000000E+00 -0.8592411E-01
  0.6326531E+00  0.0000000E+00  0.1836735E+00  0.1561153E-04  0.0000000E+00 -0.8591776E-01
  0.6734694E+00  0.0000000E+00  0.1836735E+00  0.1450560E-04  0.0000000E+00 -0.8591178E-01
  0.7142857E+00  0.0000000E+00  0.1836735E+00  0.1313465E-04  0.0000000E+00 -0.8590629E-01
  0.7551020E+00  0.0000000E+00  0.1836735E+00  0.1151967E-04  0.0000000E+00 -0.8590139E-01
  0.7959183E+00  0.0000000E+00  0.1836735E+00  0.9686630E-05  0.0000000E+00 -0.8589717E-01
  0.8367347E+00  0.0000000E+00  0.1836735E+00  0.7665976E-05  0.0000000E+00 -0.8589371E-01
  0.8775510E+00  0.0000000E+00  0.1836735E+00  0.5492038E-05  0.0000000E+00 -0.8589108E-01
  0.9183673E+00  0.0000000E+00  0.1836735E+00  0.3202898E-05  0.0000000E+00 -0.8588933E-01
  0.9591837E+00  0.0000000E+00  0.1836735E+00  0.8391613E-06  0.0000000E+00 -0.8588850E-01
  0.1000000E+01  0.0000000E+00  0.1836735E+00 -0.1557431E-05  0.0000000E+00 -0.8588862E-01
  0.1040816E+01  0.0000000E+00  0.1836735E+00 -0.3944033E-05  0.0000000E+00 -0.8588969E-01
  0.1081633E+01  0.0000000E+00  0.1836735E+00 -0.6278201E-05  0.0000000E+00 -0.8589169E-01
  0.1122449E+01  0.0000000E+00  0.1836735E+00 -0.8519345E-05  0.0000000E+00 -0.8589460E-01
  0.1163265E+01  0.0000000E+00  0.1836735E+00 -0.1062579E-04  0.0000000E+00 -0.8589837E-01
  0.1204082E+01  0.0000000E+00  0.1836735E+00 -0.1256144E-04  0.0000000E+00 -0.8590294E-01
  0.1244898E+01  0.0000000E+00  0.1836735E+00 -0.1429484E-04  0.0000000E+00 -0.8590823E-01
  0.1285714E+01  0.0000000E+00  0.1836735E+00 -0.1579553E-04  0.0000000E+00 -0.8591416E-01
  0.1326531E+01  0.0000000E+00  0.1836735E+00 -0.1703921E-04  0.0000000E+00 -0.8592063E-01
  0.1367347E+01  0.0000000E+00  0.1836735E+00 -0.1800736E-04  0.0000000E+00 -0.8592754E-01
  0.1408163E+01  0.0000000E+00  0.1836735E+00 -0.1868615E-04  0.0000000E+00 -0.8593477E-01
  0.1448980E+01  0.0000000E+00  0.1836735E+00 -0.1906665E-04  0.0000000E+00 -0.8594221E-01
  0.1489796E+01  0.0000000E+00  0.1836735E+00 -0.1914521E-04  0.0000000E+00 -0.8594973E-01
  0.1530612E+01  0.0000000E+00  0.1836735E+00 -0.1892338E-04  0.0000000E+00 -0.8595722E-01
  0.1571429E+01  0.0000000E+00  0.1836735E+00 -0.1840760E-04  0.0000000E+00 -0.8596456E-01
  0.1612245E+01  0.0000000E+00  0.1836735E+00 -0.1760876E-04  0.0000000E+00 -0.8597164E-01
  0.1653061E+01  0.0000000E+00  0.1836735E+00 -0.1654176E-04  0.0000000E+00 -0.8597836E-01
  0.1693878E+01  0.0000000E+00  0.1836735E+00 -0.1522517E-04  0.0000000E+00 -0.8598460E-01
  0.1734694E+01  0.0000000E+00  0.1836735E+00 -0.1368084E-04  0.0000000E+00 -0.8599027E-01
  0.1775510E+01  0.0000000E+00  0.1836735E+00 -0.1193350E-04  0.0000000E+00 -0.8599530E-01
  0.1816326E+01  0.0000000E+00  0.1836735E+00 -0.1001038E-04  0.0000000E+00 -0.8599960E-01
  0.1857143E+01  0.0000000E+00  0.1836735E+00 -0.7940691E-05  0.0000000E+00 -0.8600312E-01
  0.1897959E+01  0.0000000E+00  0.1836735E+00 -0.5755190E-05  0.0000000E+00 -0.8600581E-01
  0.1938776E+01  0.0000000E+00  0.1836735E+00 -0.3486359E-05  0.0000000E+00 -0.8600762E-01
  0.1989796E+01  0.0000000E+00  0.1836735E+00 -0.1168062E-05  0.0000000E+00 -0.8600853E-01
  0.2040816E-01  0.0000000E+00  0.2244898E+00  0.1270832E-05  0.0000000E+00 -0.8599421E-01
  0.6122449E-01  0.0000000E+00  0.2244898E+00  0.3794949E-05  0.0000000E+00 -0.8599331E-01
  0.1020408E+00  0.0000000E+00  0.2244898E+00  0.6261292E-05  0.0000000E+00 -0.8599153E-01
  0.1428571E+00  0.0000000E+00  0.2244898E+00  0.8629790E-05  0.0000000E+00 -0.8598890E-01
  0.1836735E+00  0.0000000E+00  0.2244898E+00  0.1086102E-04  0.0000000E+00 -0.8598545E-01
  0.2244898E+00  0.0000000E+00  0.2244898E+00  0.1291947E-04  0.0000000E+00 -0.8598123E-01
  0.2653061E+00  0.0000000E+00  0.2244898E+00  0.1477233E-04  0.0000000E+00 -0.8597633E-01
  0.3061225E+00  0.0000000E+00  0.2244898E+00  0.1638688E-04  0.0000000E+00 -0.8597080E-01
  0.3469388E+00  0.0000000E+00  0.2244898E+00  0.1773458E-04  0.0000000E+00 -0.8596475E-01
  0.3877551E+00  0.0000000E+00  0.2244898E+00  0.1879104E-04  0.0000000E+00 -0.8595827E-01
  0.4285714E+00  0.0000000E+00  0.2244898E+00  0.1953559E-04  0.0000000E+00 -0.8595146E-01
  0.4693878E+00  0.0000000E+00  0.2244898E+00  0.1995178E-04  0.0000000E+00 -0.8594443E-01
  0.5102041E+00  0.0000000E+00  0.2244898E+00  0.2002820E-04  0.0000000E+00 -0.8593732E-01
  0.5510204E+00  0.0000000E+00  0.2244898E+00  0.1975898E-04  0.0000000E+00 -0.8593023E-01
  0.5918368E+00  0.0000000E+00  0.2244898E+00  0.1914412E-04  0.0000000E+00 -0.8592329E-01
  0.6326531E+00  0.0000000E+00  0.2244898E+00  0.1818956E-04  0.0000000E+00 -0.8591662E-01
  0.6734694E+00  0.0000000E+00  0.2244898E+00  0.1690738E-04  0.0000000E+00 -0.8591035E-01
  0.7142857E+00  0.0000000E+00  0.2244898E+00  0.1531578E-04  0.0000000E+00 -0.8590458E-01
  0.7551020E+00  0.0000000E+00  0.2244898E+00  0.1343908E-04  0.0000000E+00 -0.8589943E-01
  0.7959183E+00  0.0000000E+00  0.2244898E+00  0.1130746E-04  0.0000000E+00 -0.8589499E-01
  0.8367347E+00  0.0000000E+00  0.2244898E+00  0.8956357E-05  0.0000000E+00 -0.8589134E-01
  0.8775510E+00  0.0000000E+00  0.2244898E+00  0.6425724E-05  0.0000000E+00 -0.8588857E-01
  0.9183673E+00  0.0000000E+00  0.2244898E+00  0.3760281E-05  0.0000000E+00 -0.8588672E-01
  0.9591837E+00  0.0000000E+00  0.2244898E+00  0.1007340E-05  0.0000000E+00 -0.8588583E-01
  0.1000000E+01  0.0000000E+00  0.2244898E+00 -0.1784183E-05  0.0000000E+00 -0.8588594E-01
  0.1040816E+01  0.0000000E+00  0.2244898E+00 -0.4564079E-05  0.0000000E+00 -0.8588704E-01
  0.1081633E+01  0.0000000E+00  0.2244898E+00 -0.7282641E-05  0.0000000E+00 -0.8588912E-01
  0.1122449E+01  0.0000000E+00  0.2244898E+00 -0.9892170E-05  0.0000000E+00 -0.8589215E-01
  0.1163265E+01  0.0000000E+00  0.2244898E+00 -0.1234430E-04  0.0000000E+00 -0.8589609E-01
  0.1204082E+01  0.0000000E+00  0.2244898E+00 -0.1459672E-04  0.0000000E+00 -0.8590086E-01
  0.1244898E+01  0.0000000E+00  0.2244898E+00 -0.1661255E-04  0.0000000E+00 -0.8590639E-01
  0.1285714E+01  0.0000000E+00  0.2244898E+00 -0.1835658E-04  0.0000000E+00 -0.8591259E-01
  0.1326531E+01  0.0000000E+00  0.2244898E+00 -0.1980065E-04  0.0000000E+00 -0.8591935E-01
  0.1367347E+01  0.0000000E+00  0.2244898E+00 -0.2092329E-04  0.0000000E+00 -0.8592656E-01
  0.1408163E+01  0.0000000E+00  0.2244898E+00 -0.2170865E-04  0.0000000E+00 -0.8593411E-01
  0.1448980E+01  0.0000000E+00  0.2244898E+00 -0.2214668E-04  0.0000000E+00 -0.8594187E-01
  0.1489796E+01  0.0000000E+00  0.2244898E+00 -0.2223350E-04  0.0000000E+00 -0.8594972E-01
  0.1530612E+01  0.0000000E+00  0.2244898E+00 -0.2197128E-04  0.0000000E+00 -0.8595754E-01
  0.1571429E+01  0.0000000E+00  0.2244898E+00 -0.2136786E-04  0.0000000E+00 -0.8596520E-01
  0.1612245E+01  0.0000000E+00  0.2244898E+00 -0.2043617E-04  0.0000000E+00 -0.8597258E-01
  0.1653061E+01  0.0000000E+00  0.2244898E+00 -0.1919385E-04  0.0000000E+00 -0.8597957E-01
  0.1693878E+01  0.0000000E+00  0.2244898E+00 -0.1766269E-04  0.0000000E+00 -0.8598607E-01
  0.1734694E+01  0.0000000E+00  0.2244898E+00 -0.1586821E-04  0.0000000E+00 -0.8599197E-01
  0.1775510E+01  0.0000000E+00  0.2244898E+00 -0.1383921E-04  0.0000000E+00 -0.8599721E-01
  0.1816326E+01  0.0000000E+00  0.2244898E+00 -0.1160733E-04  0.0000000E+00 -0.8600169E-01
  0.1857143E+01  0.0000000E+00  0.2244898E+00 -0.9206408E-05  0.0000000E+00 -0.8600535E-01
  0.1897959E+01  0.0000000E+00  0.2244898E+00 -0.6671917E-05  0.0000000E+00 -0.8600814E-01
  0.1938776E+01  0.0000000E+00  0.2244898E+00 -0.4041438E-05  0.0000000E+00 -0.8601003E-01
  0.1989796E+01  0.0000000E+00  0.2244898E+00 -0.1353885E-05  0.0000000E+00 -0.8601097E-01
  0.2040816E-01  0.0000000E+00  0.2653061E+00  0.1441173E-05  0.0000000E+00 -0.8599682E-01
  0.6122449E-01  0.0000000E+00  0.2653061E+00  0.4303441E-05  0.0000000E+00 -0.8599588E-01
  0.1020408E+00  0.0000000E+00  0.2653061E+00  0.7100502E-05  0.0000000E+00 -0.8599401E-01
  0.1428571E+00  0.0000000E+00  0.2653061E+00  0.9787321E-05  0.0000000E+00 -0.8599125E-01
  0.1836735E+00  0.0000000E+00  0.2653061E+00  0.1231968E-04  0.0000000E+00 -0.8598764E-01
  0.2244898E+00  0.0000000E+00  0.2653061E+00  0.1465735E-04  0.0000000E+00 -0.8598323E-01
  0.2653061E+00  0.0000000E+00  0.2653061E+00  0.1676307E-04  0.0000000E+00 -0.8597808E-01
  0.3061225E+00  0.0000000E+00  0.2653061E+00  0.1859985E-04  0.0000000E+00 -0.8597229E-01
  0.3469388E+00  0.0000000E+00  0.2653061E+00  0.2013519E-04  0.0000000E+00 -0.8596594E-01
  0.3877551E+00  0.0000000E+00  0.2653061E+00  0.2134116E-04  0.0000000E+00 -0.8595913E-01
  0.4285714E+00  0.0000000E+00  0.2653061E+00  0.2219398E-04  0.0000000E+00 -0.8595197E-01
  0.4693878E+00  0.0000000E+00  0.2653061E+00  0.2267461E-04  0.0000000E+00 -0.8594459E-01
  0.5102041E+00  0.0000000E+00  0.2653061E+00  0.2276971E-04  0.0000000E+00 -0.8593711E-01
  0.5510204E+00  0.0000000E+00  0.2653061E+00  0.2247217E-04  0.0000000E+00 -0.8592965E-01
  0.5918368E+00  0.0000000E+00  0.2653061E+00  0.2178151E-04  0.0000000E+00 -0.8592234E-01
  0.6326531E+00  0.0000000E+00  0.2653061E+00  0.2070407E-04  0.0000000E+00 -0.8591532E-01
  0.6734694E+00  0.0000000E+00  0.2653061E+00  0.1925317E-04  0.0000000E+00 -0.8590870E-01
  0.7142857E+00  0.0000000E+00  0.2653061E+00  0.1744921E-04  0.0000000E+00 -0.8590262E-01
  0.7551020E+00  0.0000000E+00  0.2653061E+00  0.1531964E-04  0.0000000E+00 -0.8589717E-01
  0.7959183E+00  0.0000000E+00  0.2653061E+00  0.1289869E-04  0.0000000E+00 -0.8589248E-01
  0.8367347E+00  0.0000000E+00  0.2653061E+00  0.1022668E-04  0.0000000E+00 -0.8588862E-01
  0.8775510E+00  0.0000000E+00  0.2653061E+00  0.7349127E-05  0.0000000E+00 -0.8588567E-01
  0.9183673E+00  0.0000000E+00  0.2653061E+00  0.4317167E-05  0.0000000E+00 -0.8588370E-01
  0.9591837E+00  0.0000000E+00  0.2653061E+00  0.1184883E-05  0.0000000E+00 -0.8588275E-01
  0.1000000E+01  0.0000000E+00  0.2653061E+00 -0.1991727E-05  0.0000000E+00 -0.8588284E-01
  0.1040816E+01  0.0000000E+00  0.2653061E+00 -0.5155127E-05  0.0000000E+00 -0.8588398E-01
  0.1081633E+01  0.0000000E+00  0.2653061E+00 -0.8248345E-05  0.0000000E+00 -0.8588616E-01
  0.1122449E+01  0.0000000E+00  0.2653061E+00 -0.1121666E-04  0.0000000E+00 -0.8588933E-01
  0.1163265E+01  0.0000000E+00  0.2653061E+00 -0.1400506E-04  0.0000000E+00 -0.8589346E-01
  0.1204082E+01  0.0000000E+00  0.2653061E+00 -0.1656513E-04  0.0000000E+00 -0.8589846E-01
  0.1244898E+01  0.0000000E+00  0.2653061E+00 -0.1885466E-04  0.0000000E+00 -0.8590427E-01
  0.1285714E+01  0.0000000E+00  0.2653061E+00 -0.2083383E-04  0.0000000E+00 -0.8591077E-01
  0.1326531E+01  0.0000000E+00  0.2653061E+00 -0.2247078E-04  0.0000000E+00 -0.8591787E-01