title = "dataset feddes"
variables = "time", "water mass", "water filled volume", "gas filled volume" 
zone t = "system mass -  variably saturated flow", f=point
  0.0000E+00  8.7035E-01  8.7035E-01  8.4165E-01
  1.0000E-10  8.7035E-01  8.7035E-01  8.4165E-01
  6.0000E-10  8.7035E-01  8.7035E-01  8.4165E-01
  3.1000E-09  8.7035E-01  8.7035E-01  8.4165E-01
  1.5600E-08  8.7036E-01  8.7036E-01  8.4164E-01
  7.8100E-08  8.7036E-01  8.7036E-01  8.4164E-01
  3.9060E-07  8.7040E-01  8.7040E-01  8.4160E-01
  1.9531E-06  8.7059E-01  8.7059E-01  8.4141E-01
  9.7656E-06  8.7139E-01  8.7139E-01  8.4061E-01
  4.3892E-05  8.7374E-01  8.7374E-01  8.3826E-01
  9.4526E-05  8.7613E-01  8.7613E-01  8.3587E-01
  1.6916E-04  8.7852E-01  8.7852E-01  8.3348E-01
  2.8115E-04  8.8094E-01  8.8094E-01  8.3106E-01
  4.6057E-04  8.8352E-01  8.8352E-01  8.2848E-01
  7.9728E-04  8.8674E-01  8.8674E-01  8.2526E-01
  1.4588E-03  8.9097E-01  8.9097E-01  8.2103E-01
  2.2143E-03  8.9457E-01  8.9457E-01  8.1743E-01
  3.2807E-03  8.9845E-01  8.9845E-01  8.1355E-01
  5.1212E-03  9.0348E-01  9.0348E-01  8.0852E-01
  7.4804E-03  9.0852E-01  9.0852E-01  8.0348E-01
  1.0659E-02  9.1392E-01  9.1392E-01  7.9808E-01
  1.5842E-02  9.2080E-01  9.2080E-01  7.9120E-01
  2.2011E-02  9.2742E-01  9.2742E-01  7.8458E-01
  3.1565E-02  9.3561E-01  9.3561E-01  7.7639E-01
  4.3375E-02  9.4386E-01  9.4386E-01  7.6814E-01
  5.9667E-02  9.5313E-01  9.5313E-01  7.5887E-01
  8.2297E-02  9.6360E-01  9.6360E-01  7.4840E-01
  1.1197E-01  9.7483E-01  9.7483E-01  7.3717E-01
  1.5184E-01  9.8716E-01  9.8716E-01  7.2484E-01
  2.0587E-01  1.0008E+00  1.0008E+00  7.1122E-01
  2.7954E-01  1.0159E+00  1.0159E+00  6.9614E-01
  3.8117E-01  1.0326E+00  1.0326E+00  6.7937E-01
  5.2409E-01  1.0515E+00  1.0515E+00  6.6052E-01
  7.2160E-01  1.0722E+00  1.0722E+00  6.3985E-01
  1.0000E+00  1.0951E+00  1.0951E+00  6.1694E-01
  1.4057E+00  1.1910E+00  1.1910E+00  5.2101E-01
  1.6085E+00  1.2375E+00  1.2375E+00  4.7453E-01
  1.7982E+00  1.2799E+00  1.2799E+00  4.3207E-01
  1.9994E+00  1.3240E+00  1.3240E+00  3.8799E-01
  2.0000E+00  1.3241E+00  1.3241E+00  3.8786E-01
  2.0031E+00  1.3248E+00  1.3248E+00  3.8719E-01
  2.0184E+00  1.3282E+00  1.3282E+00  3.8383E-01
  2.0951E+00  1.3448E+00  1.3448E+00  3.6717E-01
  2.3005E+00  1.3887E+00  1.3887E+00  3.2332E-01
  2.5080E+00  1.4324E+00  1.4324E+00  2.7963E-01
  2.7150E+00  1.4753E+00  1.4753E+00  2.3671E-01
  2.9257E+00  1.5180E+00  1.5180E+00  1.9405E-01
  3.0000E+00  1.5328E+00  1.5328E+00  1.7917E-01
  3.2499E+00  1.5784E+00  1.5784E+00  1.3359E-01
  3.5685E+00  1.6215E+00  1.6215E+00  9.0539E-02
  4.0000E+00  1.6474E+00  1.6474E+00  6.4567E-02
  5.0000E+00  1.6571E+00  1.6571E+00  5.4855E-02
  6.0000E+00  1.6585E+00  1.6585E+00  5.3518E-02
  7.0000E+00  1.6587E+00  1.6587E+00  5.3334E-02
  8.0000E+00  1.6587E+00  1.6587E+00  5.3309E-02
  9.0000E+00  1.6586E+00  1.6586E+00  5.3362E-02
  1.0000E+01  1.6586E+00  1.6586E+00  5.3392E-02
  1.1000E+01  1.6586E+00  1.6586E+00  5.3417E-02
  1.2000E+01  1.6586E+00  1.6586E+00  5.3441E-02
  1.3000E+01  1.6585E+00  1.6585E+00  5.3464E-02
  1.4000E+01  1.6585E+00  1.6585E+00  5.3488E-02
  1.5000E+01  1.6585E+00  1.6585E+00  5.3511E-02
  1.6000E+01  1.6585E+00  1.6585E+00  5.3535E-02
  1.7000E+01  1.6584E+00  1.6584E+00  5.3559E-02
  1.8000E+01  1.6584E+00  1.6584E+00  5.3582E-02
  1.9000E+01  1.6584E+00  1.6584E+00  5.3606E-02
  2.0000E+01  1.6584E+00  1.6584E+00  5.3629E-02
  2.1000E+01  1.6583E+00  1.6583E+00  5.3653E-02
  2.2000E+01  1.6583E+00  1.6583E+00  5.3676E-02
  2.3000E+01  1.6583E+00  1.6583E+00  5.3699E-02
  2.4000E+01  1.6583E+00  1.6583E+00  5.3722E-02
  2.5000E+01  1.6583E+00  1.6583E+00  5.3745E-02
  2.6000E+01  1.6582E+00  1.6582E+00  5.3768E-02
  2.7000E+01  1.6582E+00  1.6582E+00  5.3791E-02
  2.8000E+01  1.6582E+00  1.6582E+00  5.3814E-02
  2.9000E+01  1.6582E+00  1.6582E+00  5.3837E-02
  3.0000E+01  1.6581E+00  1.6581E+00  5.3860E-02
  3.1000E+01  1.6581E+00  1.6581E+00  5.3883E-02
  3.2000E+01  1.6581E+00  1.6581E+00  5.3906E-02
  3.3000E+01  1.6581E+00  1.6581E+00  5.3929E-02
  3.4000E+01  1.6580E+00  1.6580E+00  5.3952E-02
  3.5000E+01  1.6580E+00  1.6580E+00  5.3974E-02
  3.6000E+01  1.6580E+00  1.6580E+00  5.3997E-02
  3.7000E+01  1.6580E+00  1.6580E+00  5.4020E-02
  3.8000E+01  1.6580E+00  1.6580E+00  5.4042E-02
  3.9000E+01  1.6579E+00  1.6579E+00  5.4064E-02
  4.0000E+01  1.6579E+00  1.6579E+00  5.4086E-02
  4.1000E+01  1.6579E+00  1.6579E+00  5.4108E-02
  4.2000E+01  1.6579E+00  1.6579E+00  5.4130E-02
  4.3000E+01  1.6578E+00  1.6578E+00  5.4152E-02
  4.4000E+01  1.6578E+00  1.6578E+00  5.4174E-02
  4.5000E+01  1.6578E+00  1.6578E+00  5.4195E-02
  4.6000E+01  1.6578E+00  1.6578E+00  5.4216E-02
  4.7000E+01  1.6578E+00  1.6578E+00  5.4237E-02
  4.8000E+01  1.6577E+00  1.6577E+00  5.4257E-02
  4.9000E+01  1.6577E+00  1.6577E+00  5.4278E-02
  5.0000E+01  1.6577E+00  1.6577E+00  5.4298E-02
  5.1000E+01  1.6577E+00  1.6577E+00  5.4318E-02
  5.2000E+01  1.6577E+00  1.6577E+00  5.4337E-02
  5.3000E+01  1.6576E+00  1.6576E+00  5.4356E-02
  5.4000E+01  1.6576E+00  1.6576E+00  5.4375E-02
  5.5000E+01  1.6576E+00  1.6576E+00  5.4393E-02
  5.6000E+01  1.6576E+00  1.6576E+00  5.4411E-02
  5.7000E+01  1.6576E+00  1.6576E+00  5.4411E-02
  5.8000E+01  1.6576E+00  1.6576E+00  5.4406E-02
  5.9000E+01  1.6576E+00  1.6576E+00  5.4401E-02
  6.0000E+01  1.6576E+00  1.6576E+00  5.4395E-02
