title = "dataset feddes"
variables = "x", "y", "z", "h_w", "p_w", "s_w", "theta_w", "transp", "evap"
zone t = "Flow variables, solution time =  3.700E+01 days        " i =   50, j =   50, k =    1,  f=point
  0.0000000E+00  0.0000000E+00  0.0000000E+00  0.0000000E+00  0.0000000E+00  0.1000000E+01  0.4280000E+00  0.0000000E+00  0.0000000E+00
  0.4081633E-01  0.0000000E+00  0.0000000E+00  0.0000000E+00  0.0000000E+00  0.1000000E+01  0.4280000E+00  0.0000000E+00  0.0000000E+00
  0.8163265E-01  0.0000000E+00  0.0000000E+00  0.0000000E+00  0.0000000E+00  0.1000000E+01  0.4280000E+00  0.0000000E+00  0.0000000E+00
  0.1224490E+00  0.0000000E+00  0.0000000E+00  0.0000000E+00  0.0000000E+00  0.1000000E+01  0.4280000E+00  0.0000000E+00  0.0000000E+00
  0.1632653E+00  0.0000000E+00  0.0000000E+00  0.0000000E+00  0.0000000E+00  0.1000000E+01  0.4280000E+00  0.0000000E+00  0.0000000E+00
  0.2040816E+00  0.0000000E+00  0.0000000E+00  0.0000000E+00  0.0000000E+00  0.1000000E+01  0.4280000E+00  0.0000000E+00  0.0000000E+00
  0.2448980E+00  0.0000000E+00  0.0000000E+00  0.0000000E+00  0.0000000E+00  0.1000000E+01  0.4280000E+00  0.0000000E+00  0.0000000E+00
  0.2857143E+00  0.0000000E+00  0.0000000E+00  0.0000000E+00  0.0000000E+00  0.1000000E+01  0.4280000E+00  0.0000000E+00  0.0000000E+00
  0.3265306E+00  0.0000000E+00  0.0000000E+00  0.0000000E+00  0.0000000E+00  0.1000000E+01  0.4280000E+00  0.0000000E+00  0.0000000E+00
  0.3673469E+00  0.0000000E+00  0.0000000E+00  0.0000000E+00  0.0000000E+00  0.1000000E+01  0.4280000E+00  0.0000000E+00  0.0000000E+00
  0.4081633E+00  0.0000000E+00  0.0000000E+00  0.0000000E+00  0.0000000E+00  0.1000000E+01  0.4280000E+00  0.0000000E+00  0.0000000E+00
  0.4489796E+00  0.0000000E+00  0.0000000E+00  0.0000000E+00  0.0000000E+00  0.1000000E+01  0.4280000E+00  0.0000000E+00  0.0000000E+00
  0.4897959E+00  0.0000000E+00  0.0000000E+00  0.0000000E+00  0.0000000E+00  0.1000000E+01  0.4280000E+00  0.0000000E+00  0.0000000E+00
  0.5306122E+00  0.0000000E+00  0.0000000E+00  0.0000000E+00  0.0000000E+00  0.1000000E+01  0.4280000E+00  0.0000000E+00  0.0000000E+00
  0.5714286E+00  0.0000000E+00  0.0000000E+00  0.0000000E+00  0.0000000E+00  0.1000000E+01  0.4280000E+00  0.0000000E+00  0.0000000E+00
  0.6122449E+00  0.0000000E+00  0.0000000E+00  0.0000000E+00  0.0000000E+00  0.1000000E+01  0.4280000E+00  0.0000000E+00  0.0000000E+00
  0.6530612E+00  0.0000000E+00  0.0000000E+00  0.0000000E+00  0.0000000E+00  0.1000000E+01  0.4280000E+00  0.0000000E+00  0.0000000E+00
  0.6938776E+00  0.0000000E+00  0.0000000E+00  0.0000000E+00  0.0000000E+00  0.1000000E+01  0.4280000E+00  0.0000000E+00  0.0000000E+00
  0.7346939E+00  0.0000000E+00  0.0000000E+00  0.0000000E+00  0.0000000E+00  0.1000000E+01  0.4280000E+00  0.0000000E+00  0.0000000E+00
  0.7755102E+00  0.0000000E+00  0.0000000E+00  0.0000000E+00  0.0000000E+00  0.1000000E+01  0.4280000E+00  0.0000000E+00  0.0000000E+00
  0.8163265E+00  0.0000000E+00  0.0000000E+00  0.0000000E+00  0.0000000E+00  0.1000000E+01  0.4280000E+00  0.0000000E+00  0.0000000E+00
  0.8571429E+00  0.0000000E+00  0.0000000E+00  0.0000000E+00  0.0000000E+00  0.1000000E+01  0.4280000E+00  0.0000000E+00  0.0000000E+00
  0.8979592E+00  0.0000000E+00  0.0000000E+00  0.0000000E+00  0.0000000E+00  0.1000000E+01  0.4280000E+00  0.0000000E+00  0.0000000E+00
  0.9387755E+00  0.0000000E+00  0.0000000E+00  0.0000000E+00  0.0000000E+00  0.1000000E+01  0.4280000E+00  0.0000000E+00  0.0000000E+00
  0.9795918E+00  0.0000000E+00  0.0000000E+00  0.0000000E+00  0.0000000E+00  0.1000000E+01  0.4280000E+00  0.0000000E+00  0.0000000E+00
  0.1020408E+01  0.0000000E+00  0.0000000E+00  0.0000000E+00  0.0000000E+00  0.1000000E+01  0.4280000E+00  0.0000000E+00  0.0000000E+00
  0.1061224E+01  0.0000000E+00  0.0000000E+00  0.0000000E+00  0.0000000E+00  0.1000000E+01  0.4280000E+00  0.0000000E+00  0.0000000E+00
  0.1102041E+01  0.0000000E+00  0.0000000E+00  0.0000000E+00  0.0000000E+00  0.1000000E+01  0.4280000E+00  0.0000000E+00  0.0000000E+00
  0.1142857E+01  0.0000000E+00  0.0000000E+00  0.0000000E+00  0.0000000E+00  0.1000000E+01  0.4280000E+00  0.0000000E+00  0.0000000E+00
  0.1183673E+01  0.0000000E+00  0.0000000E+00  0.0000000E+00  0.0000000E+00  0.1000000E+01  0.4280000E+00  0.0000000E+00  0.0000000E+00
  0.1224490E+01  0.0000000E+00  0.0000000E+00  0.0000000E+00  0.0000000E+00  0.1000000E+01  0.4280000E+00  0.0000000E+00  0.0000000E+00
  0.1265306E+01  0.0000000E+00  0.0000000E+00  0.0000000E+00  0.0000000E+00  0.1000000E+01  0.4280000E+00  0.0000000E+00  0.0000000E+00
  0.1306122E+01  0.0000000E+00  0.0000000E+00  0.0000000E+00  0.0000000E+00  0.1000000E+01  0.4280000E+00  0.0000000E+00  0.0000000E+00
  0.1346939E+01  0.0000000E+00  0.0000000E+00  0.0000000E+00  0.0000000E+00  0.1000000E+01  0.4280000E+00  0.0000000E+00  0.0000000E+00
  0.1387755E+01  0.0000000E+00  0.0000000E+00  0.0000000E+00  0.0000000E+00  0.1000000E+01  0.4280000E+00  0.0000000E+00  0.0000000E+00
  0.1428571E+01  0.0000000E+00  0.0000000E+00  0.0000000E+00  0.0000000E+00  0.1000000E+01  0.4280000E+00  0.0000000E+00  0.0000000E+00
  0.1469388E+01  0.0000000E+00  0.0000000E+00  0.0000000E+00  0.0000000E+00  0.1000000E+01  0.4280000E+00  0.0000000E+00  0.0000000E+00
  0.1510204E+01  0.0000000E+00  0.0000000E+00  0.0000000E+00  0.0000000E+00  0.1000000E+01  0.4280000E+00  0.0000000E+00  0.0000000E+00
  0.1551020E+01  0.0000000E+00  0.0000000E+00  0.0000000E+00  0.0000000E+00  0.1000000E+01  0.4280000E+00  0.0000000E+00  0.0000000E+00
  0.1591837E+01  0.0000000E+00  0.0000000E+00  0.0000000E+00  0.0000000E+00  0.1000000E+01  0.4280000E+00  0.0000000E+00  0.0000000E+00
  0.1632653E+01  0.0000000E+00  0.0000000E+00  0.0000000E+00  0.0000000E+00  0.1000000E+01  0.4280000E+00  0.0000000E+00  0.0000000E+00
  0.1673469E+01  0.0000000E+00  0.0000000E+00  0.0000000E+00  0.0000000E+00  0.1000000E+01  0.4280000E+00  0.0000000E+00  0.0000000E+00
  0.1714286E+01  0.0000000E+00  0.0000000E+00  0.0000000E+00  0.0000000E+00  0.1000000E+01  0.4280000E+00  0.0000000E+00  0.0000000E+00
  0.1755102E+01  0.0000000E+00  0.0000000E+00  0.0000000E+00  0.0000000E+00  0.1000000E+01  0.4280000E+00  0.0000000E+00  0.0000000E+00
  0.1795918E+01  0.0000000E+00  0.0000000E+00  0.0000000E+00  0.0000000E+00  0.1000000E+01  0.4280000E+00  0.0000000E+00  0.0000000E+00
  0.1836735E+01  0.0000000E+00  0.0000000E+00  0.0000000E+00  0.0000000E+00  0.1000000E+01  0.4280000E+00  0.0000000E+00  0.0000000E+00
  0.1877551E+01  0.0000000E+00  0.0000000E+00  0.0000000E+00  0.0000000E+00  0.1000000E+01  0.4280000E+00  0.0000000E+00  0.0000000E+00
  0.1918367E+01  0.0000000E+00  0.0000000E+00  0.0000000E+00  0.0000000E+00  0.1000000E+01  0.4280000E+00  0.0000000E+00  0.0000000E+00
  0.1959184E+01  0.0000000E+00  0.0000000E+00  0.0000000E+00  0.0000000E+00  0.1000000E+01  0.4280000E+00  0.0000000E+00  0.0000000E+00
  0.2000000E+01  0.0000000E+00  0.0000000E+00  0.0000000E+00  0.0000000E+00  0.1000000E+01  0.4280000E+00  0.0000000E+00  0.0000000E+00
  0.0000000E+00  0.0000000E+00  0.4081633E-01  0.1320621E-01 -0.2761011E-01  0.9976938E+00  0.4270130E+00  0.0000000E+00  0.0000000E+00
  0.4081633E-01  0.0000000E+00  0.4081633E-01  0.1320610E-01 -0.2761023E-01  0.9976938E+00  0.4270130E+00  0.0000000E+00  0.0000000E+00
  0.8163265E-01  0.0000000E+00  0.4081633E-01  0.1320576E-01 -0.2761057E-01  0.9976938E+00  0.4270129E+00  0.0000000E+00  0.0000000E+00
  0.1224490E+00  0.0000000E+00  0.4081633E-01  0.1320520E-01 -0.2761113E-01  0.9976937E+00  0.4270129E+00  0.0000000E+00  0.0000000E+00
  0.1632653E+00  0.0000000E+00  0.4081633E-01  0.1320443E-01 -0.2761190E-01  0.9976936E+00  0.4270129E+00  0.0000000E+00  0.0000000E+00
  0.2040816E+00  0.0000000E+00  0.4081633E-01  0.1320346E-01 -0.2761287E-01  0.9976935E+00  0.4270128E+00  0.0000000E+00  0.0000000E+00
  0.2448980E+00  0.0000000E+00  0.4081633E-01  0.1320230E-01 -0.2761403E-01  0.9976934E+00  0.4270128E+00  0.0000000E+00  0.0000000E+00
  0.2857143E+00  0.0000000E+00  0.4081633E-01  0.1320098E-01 -0.2761534E-01  0.9976932E+00  0.4270127E+00  0.0000000E+00  0.0000000E+00
  0.3265306E+00  0.0000000E+00  0.4081633E-01  0.1319952E-01 -0.2761680E-01  0.9976931E+00  0.4270126E+00  0.0000000E+00  0.0000000E+00
  0.3673469E+00  0.0000000E+00  0.4081633E-01  0.1319795E-01 -0.2761838E-01  0.9976929E+00  0.4270126E+00  0.0000000E+00  0.0000000E+00
  0.4081633E+00  0.0000000E+00  0.4081633E-01  0.1319628E-01 -0.2762005E-01  0.9976927E+00  0.4270125E+00  0.0000000E+00  0.0000000E+00
  0.4489796E+00  0.0000000E+00  0.4081633E-01  0.1319455E-01 -0.2762177E-01  0.9976925E+00  0.4270124E+00  0.0000000E+00  0.0000000E+00
  0.4897959E+00  0.0000000E+00  0.4081633E-01  0.1319280E-01 -0.2762353E-01  0.9976923E+00  0.4270123E+00  0.0000000E+00  0.0000000E+00
  0.5306122E+00  0.0000000E+00  0.4081633E-01  0.1319104E-01 -0.2762529E-01  0.9976921E+00  0.4270122E+00  0.0000000E+00  0.0000000E+00
  0.5714286E+00  0.0000000E+00  0.4081633E-01  0.1318931E-01 -0.2762701E-01  0.9976919E+00  0.4270121E+00  0.0000000E+00  0.0000000E+00
  0.6122449E+00  0.0000000E+00  0.4081633E-01  0.1318765E-01 -0.2762867E-01  0.9976917E+00  0.4270120E+00  0.0000000E+00  0.0000000E+00
  0.6530612E+00  0.0000000E+00  0.4081633E-01  0.1318609E-01 -0.2763024E-01  0.9976915E+00  0.4270120E+00  0.0000000E+00  0.0000000E+00
  0.6938776E+00  0.0000000E+00  0.4081633E-01  0.1318464E-01 -0.2763169E-01  0.9976913E+00  0.4270119E+00  0.0000000E+00  0.0000000E+00
  0.7346939E+00  0.0000000E+00  0.4081633E-01  0.1318335E-01 -0.2763298E-01  0.9976912E+00  0.4270118E+00  0.0000000E+00  0.0000000E+00
  0.7755102E+00  0.0000000E+00  0.4081633E-01  0.1318223E-01 -0.2763410E-01  0.9976911E+00  0.4270118E+00  0.0000000E+00  0.0000000E+00
  0.8163265E+00  0.0000000E+00  0.4081633E-01  0.1318131E-01 -0.2763501E-01  0.9976910E+00  0.4270117E+00  0.0000000E+00  0.0000000E+00
  0.8571429E+00  0.0000000E+00  0.4081633E-01  0.1318061E-01 -0.2763572E-01  0.9976909E+00  0.4270117E+00  0.0000000E+00  0.0000000E+00
  0.8979592E+00  0.0000000E+00  0.4081633E-01  0.1318014E-01 -0.2763618E-01  0.9976908E+00  0.4270117E+00  0.0000000E+00  0.0000000E+00
  0.9387755E+00  0.0000000E+00  0.4081633E-01  0.1317992E-01 -0.2763641E-01  0.9976908E+00  0.4270117E+00  0.0000000E+00  0.0000000E+00
  0.9795918E+00  0.0000000E+00  0.4081633E-01  0.1317994E-01 -0.2763638E-01  0.9976908E+00  0.4270117E+00  0.0000000E+00  0.0000000E+00
  0.1020408E+01  0.0000000E+00  0.4081633E-01  0.1318022E-01 -0.2763611E-01  0.9976908E+00  0.4270117E+00  0.0000000E+00  0.0000000E+00
  0.1061224E+01  0.0000000E+00  0.4081633E-01  0.1318075E-01 -0.2763558E-01  0.9976909E+00  0.4270117E+00  0.0000000E+00  0.0000000E+00
  0.1102041E+01  0.0000000E+00  0.4081633E-01  0.1318152E-01 -0.2763480E-01  0.9976910E+00  0.4270117E+00  0.0000000E+00  0.0000000E+00
  0.1142857E+01  0.0000000E+00  0.4081633E-01  0.1318253E-01 -0.2763380E-01  0.9976911E+00  0.4270118E+00  0.0000000E+00  0.0000000E+00
  0.1183673E+01  0.0000000E+00  0.4081633E-01  0.1318375E-01 -0.2763258E-01  0.9976912E+00  0.4270119E+00  0.0000000E+00  0.0000000E+00
  0.1224490E+01  0.0000000E+00  0.4081633E-01  0.1318517E-01 -0.2763115E-01  0.9976914E+00  0.4270119E+00  0.0000000E+00  0.0000000E+00
  0.1265306E+01  0.0000000E+00  0.4081633E-01  0.1318677E-01 -0.2762955E-01  0.9976916E+00  0.4270120E+00  0.0000000E+00  0.0000000E+00
  0.1306122E+01  0.0000000E+00  0.4081633E-01  0.1318853E-01 -0.2762780E-01  0.9976918E+00  0.4270121E+00  0.0000000E+00  0.0000000E+00
  0.1346939E+01  0.0000000E+00  0.4081633E-01  0.1319040E-01 -0.2762592E-01  0.9976920E+00  0.4270122E+00  0.0000000E+00  0.0000000E+00
  0.1387755E+01  0.0000000E+00  0.4081633E-01  0.1319238E-01 -0.2762395E-01  0.9976922E+00  0.4270123E+00  0.0000000E+00  0.0000000E+00
  0.1428571E+01  0.0000000E+00  0.4081633E-01  0.1319441E-01 -0.2762191E-01  0.9976925E+00  0.4270124E+00  0.0000000E+00  0.0000000E+00
  0.1469388E+01  0.0000000E+00  0.4081633E-01  0.1319648E-01 -0.2761984E-01  0.9976927E+00  0.4270125E+00  0.0000000E+00  0.0000000E+00
  0.1510204E+01  0.0000000E+00  0.4081633E-01  0.1319855E-01 -0.2761777E-01  0.9976929E+00  0.4270126E+00  0.0000000E+00  0.0000000E+00
  0.1551020E+01  0.0000000E+00  0.4081633E-01  0.1320060E-01 -0.2761573E-01  0.9976932E+00  0.4270127E+00  0.0000000E+00  0.0000000E+00
  0.1591837E+01  0.0000000E+00  0.4081633E-01  0.1320258E-01 -0.2761375E-01  0.9976934E+00  0.4270128E+00  0.0000000E+00  0.0000000E+00
  0.1632653E+01  0.0000000E+00  0.4081633E-01  0.1320447E-01 -0.2761186E-01  0.9976936E+00  0.4270129E+00  0.0000000E+00  0.0000000E+00
  0.1673469E+01  0.0000000E+00  0.4081633E-01  0.1320624E-01 -0.2761008E-01  0.9976938E+00  0.4270130E+00  0.0000000E+00  0.0000000E+00
  0.1714286E+01  0.0000000E+00  0.4081633E-01  0.1320787E-01 -0.2760846E-01  0.9976940E+00  0.4270130E+00  0.0000000E+00  0.0000000E+00
  0.1755102E+01  0.0000000E+00  0.4081633E-01  0.1320933E-01 -0.2760699E-01  0.9976942E+00  0.4270131E+00  0.0000000E+00  0.0000000E+00
  0.1795918E+01  0.0000000E+00  0.4081633E-01  0.1321061E-01 -0.2760572E-01  0.9976943E+00  0.4270132E+00  0.0000000E+00  0.0000000E+00
  0.1836735E+01  0.0000000E+00  0.4081633E-01  0.1321167E-01 -0.2760465E-01  0.9976944E+00  0.4270132E+00  0.0000000E+00  0.0000000E+00
  0.1877551E+01  0.0000000E+00  0.4081633E-01  0.1321252E-01 -0.2760381E-01  0.9976945E+00  0.4270133E+00  0.0000000E+00  0.0000000E+00
  0.1918367E+01  0.0000000E+00  0.4081633E-01  0.1321313E-01 -0.2760319E-01  0.9976946E+00  0.4270133E+00  0.0000000E+00  0.0000000E+00
  0.1959184E+01  0.0000000E+00  0.4081633E-01  0.1321350E-01 -0.2760282E-01  0.9976947E+00  0.4270133E+00  0.0000000E+00  0.0000000E+00
  0.2000000E+01  0.0000000E+00  0.4081633E-01  0.1321363E-01 -0.2760270E-01  0.9976947E+00  0.4270133E+00  0.0000000E+00  0.0000000E+00
  0.0000000E+00  0.0000000E+00  0.8163265E-01  0.2956942E-01 -0.5206323E-01  0.9945102E+00  0.4256503E+00  0.0000000E+00  0.0000000E+00
  0.4081633E-01  0.0000000E+00  0.8163265E-01  0.2956917E-01 -0.5206348E-01  0.9945101E+00  0.4256503E+00  0.0000000E+00  0.0000000E+00
  0.8163265E-01  0.0000000E+00  0.8163265E-01  0.2956844E-01 -0.5206421E-01  0.9945100E+00  0.4256503E+00  0.0000000E+00  0.0000000E+00
  0.1224490E+00  0.0000000E+00  0.8163265E-01  0.2956723E-01 -0.5206542E-01  0.9945098E+00  0.4256502E+00  0.0000000E+00  0.0000000E+00
  0.1632653E+00  0.0000000E+00  0.8163265E-01  0.2956556E-01 -0.5206709E-01  0.9945096E+00  0.4256501E+00  0.0000000E+00  0.0000000E+00
  0.2040816E+00  0.0000000E+00  0.8163265E-01  0.2956346E-01 -0.5206919E-01  0.9945093E+00  0.4256500E+00  0.0000000E+00  0.0000000E+00
  0.2448980E+00  0.0000000E+00  0.8163265E-01  0.2956097E-01 -0.5207168E-01  0.9945089E+00  0.4256498E+00  0.0000000E+00  0.0000000E+00
  0.2857143E+00  0.0000000E+00  0.8163265E-01  0.2955813E-01 -0.5207453E-01  0.9945085E+00  0.4256497E+00  0.0000000E+00  0.0000000E+00
  0.3265306E+00  0.0000000E+00  0.8163265E-01  0.2955498E-01 -0.5207768E-01  0.9945081E+00  0.4256495E+00  0.0000000E+00  0.0000000E+00
  0.3673469E+00  0.0000000E+00  0.8163265E-01  0.2955157E-01 -0.5208108E-01  0.9945076E+00  0.4256492E+00  0.0000000E+00  0.0000000E+00
  0.4081633E+00  0.0000000E+00  0.8163265E-01  0.2954798E-01 -0.5208468E-01  0.9945071E+00  0.4256490E+00  0.0000000E+00  0.0000000E+00
  0.4489796E+00  0.0000000E+00  0.8163265E-01  0.2954425E-01 -0.5208840E-01  0.9945065E+00  0.4256488E+00  0.0000000E+00  0.0000000E+00
  0.4897959E+00  0.0000000E+00  0.8163265E-01  0.2954045E-01 -0.5209220E-01  0.9945060E+00  0.4256486E+00  0.0000000E+00  0.0000000E+00
  0.5306122E+00  0.0000000E+00  0.8163265E-01  0.2953666E-01 -0.5209599E-01  0.9945054E+00  0.4256483E+00  0.0000000E+00  0.0000000E+00
  0.5714286E+00  0.0000000E+00  0.8163265E-01  0.2953293E-01 -0.5209972E-01  0.9945049E+00  0.4256481E+00  0.0000000E+00  0.0000000E+00
  0.6122449E+00  0.0000000E+00  0.8163265E-01  0.2952934E-01 -0.5210331E-01  0.9945044E+00  0.4256479E+00  0.0000000E+00  0.0000000E+00
  0.6530612E+00  0.0000000E+00  0.8163265E-01  0.2952596E-01 -0.5210670E-01  0.9945039E+00  0.4256477E+00  0.0000000E+00  0.0000000E+00
  0.6938776E+00  0.0000000E+00  0.8163265E-01  0.2952283E-01 -0.5210982E-01  0.9945035E+00  0.4256475E+00  0.0000000E+00  0.0000000E+00
  0.7346939E+00  0.0000000E+00  0.8163265E-01  0.2952004E-01 -0.5211261E-01  0.9945031E+00  0.4256473E+00  0.0000000E+00  0.0000000E+00
  0.7755102E+00  0.0000000E+00  0.8163265E-01  0.2951762E-01 -0.5211503E-01  0.9945027E+00  0.4256472E+00  0.0000000E+00  0.0000000E+00
  0.8163265E+00  0.0000000E+00  0.8163265E-01  0.2951564E-01 -0.5211702E-01  0.9945024E+00  0.4256470E+00  0.0000000E+00  0.0000000E+00
  0.8571429E+00  0.0000000E+00  0.8163265E-01  0.2951412E-01 -0.5211853E-01  0.9945022E+00  0.4256469E+00  0.0000000E+00  0.0000000E+00
  0.8979592E+00  0.0000000E+00  0.8163265E-01  0.2951310E-01 -0.5211955E-01  0.9945021E+00  0.4256469E+00  0.0000000E+00  0.0000000E+00
  0.9387755E+00  0.0000000E+00  0.8163265E-01  0.2951261E-01 -0.5212004E-01  0.9945020E+00  0.4256469E+00  0.0000000E+00  0.0000000E+00
  0.9795918E+00  0.0000000E+00  0.8163265E-01  0.2951267E-01 -0.5211999E-01  0.9945020E+00  0.4256469E+00  0.0000000E+00  0.0000000E+00
  0.1020408E+01  0.0000000E+00  0.8163265E-01  0.2951326E-01 -0.5211939E-01  0.9945021E+00  0.4256469E+00  0.0000000E+00  0.0000000E+00
  0.1061224E+01  0.0000000E+00  0.8163265E-01  0.2951440E-01 -0.5211825E-01  0.9945023E+00  0.4256470E+00  0.0000000E+00  0.0000000E+00
  0.1102041E+01  0.0000000E+00  0.8163265E-01  0.2951607E-01 -0.5211659E-01  0.9945025E+00  0.4256471E+00  0.0000000E+00  0.0000000E+00
  0.1142857E+01  0.0000000E+00  0.8163265E-01  0.2951824E-01 -0.5211442E-01  0.9945028E+00  0.4256472E+00  0.0000000E+00  0.0000000E+00
  0.1183673E+01  0.0000000E+00  0.8163265E-01  0.2952088E-01 -0.5211178E-01  0.9945032E+00  0.4256474E+00  0.0000000E+00  0.0000000E+00
  0.1224490E+01  0.0000000E+00  0.8163265E-01  0.2952395E-01 -0.5210871E-01  0.9945036E+00  0.4256476E+00  0.0000000E+00  0.0000000E+00
  0.1265306E+01  0.0000000E+00  0.8163265E-01  0.2952740E-01 -0.5210525E-01  0.9945041E+00  0.4256478E+00  0.0000000E+00  0.0000000E+00
  0.1306122E+01  0.0000000E+00  0.8163265E-01  0.2953118E-01 -0.5210147E-01  0.9945047E+00  0.4256480E+00  0.0000000E+00  0.0000000E+00
  0.1346939E+01  0.0000000E+00  0.8163265E-01  0.2953523E-01 -0.5209743E-01  0.9945052E+00  0.4256482E+00  0.0000000E+00  0.0000000E+00
  0.1387755E+01  0.0000000E+00  0.8163265E-01  0.2953948E-01 -0.5209317E-01  0.9945059E+00  0.4256485E+00  0.0000000E+00  0.0000000E+00
  0.1428571E+01  0.0000000E+00  0.8163265E-01  0.2954388E-01 -0.5208878E-01  0.9945065E+00  0.4256488E+00  0.0000000E+00  0.0000000E+00
  0.1469388E+01  0.0000000E+00  0.8163265E-01  0.2954834E-01 -0.5208431E-01  0.9945071E+00  0.4256490E+00  0.0000000E+00  0.0000000E+00
  0.1510204E+01  0.0000000E+00  0.8163265E-01  0.2955281E-01 -0.5207984E-01  0.9945078E+00  0.4256493E+00  0.0000000E+00  0.0000000E+00
  0.1551020E+01  0.0000000E+00  0.8163265E-01  0.2955721E-01 -0.5207544E-01  0.9945084E+00  0.4256496E+00  0.0000000E+00  0.0000000E+00
  0.1591837E+01  0.0000000E+00  0.8163265E-01  0.2956148E-01 -0.5207117E-01  0.9945090E+00  0.4256499E+00  0.0000000E+00  0.0000000E+00
  0.1632653E+01  0.0000000E+00  0.8163265E-01  0.2956556E-01 -0.5206709E-01  0.9945096E+00  0.4256501E+00  0.0000000E+00  0.0000000E+00
  0.1673469E+01  0.0000000E+00  0.8163265E-01  0.2956938E-01 -0.5206327E-01  0.9945101E+00  0.4256503E+00  0.0000000E+00  0.0000000E+00
  0.1714286E+01  0.0000000E+00  0.8163265E-01  0.2957290E-01 -0.5205976E-01  0.9945106E+00  0.4256506E+00  0.0000000E+00  0.0000000E+00
  0.1755102E+01  0.0000000E+00  0.8163265E-01  0.2957605E-01 -0.5205661E-01  0.9945111E+00  0.4256508E+00  0.0000000E+00  0.0000000E+00
  0.1795918E+01  0.0000000E+00  0.8163265E-01  0.2957879E-01 -0.5205386E-01  0.9945115E+00  0.4256509E+00  0.0000000E+00  0.0000000E+00
  0.1836735E+01  0.0000000E+00  0.8163265E-01  0.2958109E-01 -0.5205156E-01  0.9945118E+00  0.4256511E+00  0.0000000E+00  0.0000000E+00
  0.1877551E+01  0.0000000E+00  0.8163265E-01  0.2958292E-01 -0.5204974E-01  0.9945121E+00  0.4256512E+00  0.0000000E+00  0.0000000E+00
  0.1918367E+01  0.0000000E+00  0.8163265E-01  0.2958424E-01 -0.5204841E-01  0.9945123E+00  0.4256513E+00  0.0000000E+00  0.0000000E+00
  0.1959184E+01  0.0000000E+00  0.8163265E-01  0.2958504E-01 -0.5204761E-01  0.9945124E+00  0.4256513E+00  0.0000000E+00  0.0000000E+00
  0.2000000E+01  0.0000000E+00  0.8163265E-01  0.2958531E-01 -0.5204735E-01  0.9945124E+00  0.4256513E+00  0.0000000E+00  0.0000000E+00
  0.0000000E+00  0.0000000E+00  0.1224490E+00  0.4864704E-01 -0.7380193E-01  0.9911887E+00  0.4242288E+00  0.0000000E+00  0.0000000E+00
  0.4081633E-01  0.0000000E+00  0.1224490E+00  0.4864665E-01 -0.7380233E-01  0.9911886E+00  0.4242287E+00  0.0000000E+00  0.0000000E+00
  0.8163265E-01  0.0000000E+00  0.1224490E+00  0.4864548E-01 -0.7380350E-01  0.9911884E+00  0.4242286E+00  0.0000000E+00  0.0000000E+00
  0.1224490E+00  0.0000000E+00  0.1224490E+00  0.4864356E-01 -0.7380542E-01  0.9911881E+00  0.4242285E+00  0.0000000E+00  0.0000000E+00
  0.1632653E+00  0.0000000E+00  0.1224490E+00  0.4864090E-01 -0.7380808E-01  0.9911877E+00  0.4242283E+00  0.0000000E+00  0.0000000E+00
  0.2040816E+00  0.0000000E+00  0.1224490E+00  0.4863757E-01 -0.7381141E-01  0.9911872E+00  0.4242281E+00  0.0000000E+00  0.0000000E+00
  0.2448980E+00  0.0000000E+00  0.1224490E+00  0.4863360E-01 -0.7381538E-01  0.9911865E+00  0.4242278E+00  0.0000000E+00  0.0000000E+00
  0.2857143E+00  0.0000000E+00  0.1224490E+00  0.4862907E-01 -0.7381991E-01  0.9911858E+00  0.4242275E+00  0.0000000E+00  0.0000000E+00
  0.3265306E+00  0.0000000E+00  0.1224490E+00  0.4862405E-01 -0.7382492E-01  0.9911850E+00  0.4242272E+00  0.0000000E+00  0.0000000E+00
  0.3673469E+00  0.0000000E+00  0.1224490E+00  0.4861864E-01 -0.7383034E-01  0.9911841E+00  0.4242268E+00  0.0000000E+00  0.0000000E+00
  0.4081633E+00  0.0000000E+00  0.1224490E+00  0.4861291E-01 -0.7383607E-01  0.9911832E+00  0.4242264E+00  0.0000000E+00  0.0000000E+00
  0.4489796E+00  0.0000000E+00  0.1224490E+00  0.4860697E-01 -0.7384201E-01  0.9911822E+00  0.4242260E+00  0.0000000E+00  0.0000000E+00
  0.4897959E+00  0.0000000E+00  0.1224490E+00  0.4860092E-01 -0.7384806E-01  0.9911812E+00  0.4242256E+00  0.0000000E+00  0.0000000E+00
  0.5306122E+00  0.0000000E+00  0.1224490E+00  0.4859487E-01 -0.7385411E-01  0.9911803E+00  0.4242252E+00  0.0000000E+00  0.0000000E+00
  0.5714286E+00  0.0000000E+00  0.1224490E+00  0.4858893E-01 -0.7386005E-01  0.9911793E+00  0.4242247E+00  0.0000000E+00  0.0000000E+00
  0.6122449E+00  0.0000000E+00  0.1224490E+00  0.4858321E-01 -0.7386577E-01  0.9911784E+00  0.4242244E+00  0.0000000E+00  0.0000000E+00
  0.6530612E+00  0.0000000E+00  0.1224490E+00  0.4857781E-01 -0.7387117E-01  0.9911775E+00  0.4242240E+00  0.0000000E+00  0.0000000E+00
  0.6938776E+00  0.0000000E+00  0.1224490E+00  0.4857283E-01 -0.7387615E-01  0.9911767E+00  0.4242236E+00  0.0000000E+00  0.0000000E+00
  0.7346939E+00  0.0000000E+00  0.1224490E+00  0.4856837E-01 -0.7388061E-01  0.9911760E+00  0.4242233E+00  0.0000000E+00  0.0000000E+00
  0.7755102E+00  0.0000000E+00  0.1224490E+00  0.4856451E-01 -0.7388447E-01  0.9911754E+00  0.4242231E+00  0.0000000E+00  0.0000000E+00
  0.8163265E+00  0.0000000E+00  0.1224490E+00  0.4856134E-01 -0.7388764E-01  0.9911749E+00  0.4242228E+00  0.0000000E+00  0.0000000E+00
  0.8571429E+00  0.0000000E+00  0.1224490E+00  0.4855891E-01 -0.7389007E-01  0.9911745E+00  0.4242227E+00  0.0000000E+00  0.0000000E+00
  0.8979592E+00  0.0000000E+00  0.1224490E+00  0.4855729E-01 -0.7389169E-01  0.9911742E+00  0.4242226E+00  0.0000000E+00  0.0000000E+00
  0.9387755E+00  0.0000000E+00  0.1224490E+00  0.4855650E-01 -0.7389248E-01  0.9911741E+00  0.4242225E+00  0.0000000E+00  0.0000000E+00
  0.9795918E+00  0.0000000E+00  0.1224490E+00  0.4855657E-01 -0.7389240E-01  0.9911741E+00  0.4242225E+00  0.0000000E+00  0.0000000E+00
  0.1020408E+01  0.0000000E+00  0.1224490E+00  0.4855752E-01 -0.7389146E-01  0.9911742E+00  0.4242226E+00  0.0000000E+00  0.0000000E+00
  0.1061224E+01  0.0000000E+00  0.1224490E+00  0.4855933E-01 -0.7388965E-01  0.9911745E+00  0.4242227E+00  0.0000000E+00  0.0000000E+00
  0.1102041E+01  0.0000000E+00  0.1224490E+00  0.4856197E-01 -0.7388701E-01  0.9911750E+00  0.4242229E+00  0.0000000E+00  0.0000000E+00
  0.1142857E+01  0.0000000E+00  0.1224490E+00  0.4856542E-01 -0.7388356E-01  0.9911755E+00  0.4242231E+00  0.0000000E+00  0.0000000E+00
  0.1183673E+01  0.0000000E+00  0.1224490E+00  0.4856962E-01 -0.7387936E-01  0.9911762E+00  0.4242234E+00  0.0000000E+00  0.0000000E+00
  0.1224490E+01  0.0000000E+00  0.1224490E+00  0.4857450E-01 -0.7387448E-01  0.9911770E+00  0.4242238E+00  0.0000000E+00  0.0000000E+00
  0.1265306E+01  0.0000000E+00  0.1224490E+00  0.4857999E-01 -0.7386899E-01  0.9911779E+00  0.4242241E+00  0.0000000E+00  0.0000000E+00
  0.1306122E+01  0.0000000E+00  0.1224490E+00  0.4858601E-01 -0.7386297E-01  0.9911788E+00  0.4242245E+00  0.0000000E+00  0.0000000E+00
  0.1346939E+01  0.0000000E+00  0.1224490E+00  0.4859245E-01 -0.7385653E-01  0.9911799E+00  0.4242250E+00  0.0000000E+00  0.0000000E+00
  0.1387755E+01  0.0000000E+00  0.1224490E+00  0.4859922E-01 -0.7384976E-01  0.9911810E+00  0.4242255E+00  0.0000000E+00  0.0000000E+00
  0.1428571E+01  0.0000000E+00  0.1224490E+00  0.4860620E-01 -0.7384278E-01  0.9911821E+00  0.4242259E+00  0.0000000E+00  0.0000000E+00
  0.1469388E+01  0.0000000E+00  0.1224490E+00  0.4861331E-01 -0.7383567E-01  0.9911832E+00  0.4242264E+00  0.0000000E+00  0.0000000E+00
  0.1510204E+01  0.0000000E+00  0.1224490E+00  0.4862041E-01 -0.7382857E-01  0.9911844E+00  0.4242269E+00  0.0000000E+00  0.0000000E+00
  0.1551020E+01  0.0000000E+00  0.1224490E+00  0.4862741E-01 -0.7382157E-01  0.9911855E+00  0.4242274E+00  0.0000000E+00  0.0000000E+00
  0.1591837E+01  0.0000000E+00  0.1224490E+00  0.4863420E-01 -0.7381478E-01  0.9911866E+00  0.4242279E+00  0.0000000E+00  0.0000000E+00
  0.1632653E+01  0.0000000E+00  0.1224490E+00  0.4864068E-01 -0.7380830E-01  0.9911877E+00  0.4242283E+00  0.0000000E+00  0.0000000E+00
  0.1673469E+01  0.0000000E+00  0.1224490E+00  0.4864675E-01 -0.7380223E-01  0.9911886E+00  0.4242287E+00  0.0000000E+00  0.0000000E+00
  0.1714286E+01  0.0000000E+00  0.1224490E+00  0.4865234E-01 -0.7379664E-01  0.9911895E+00  0.4242291E+00  0.0000000E+00  0.0000000E+00
  0.1755102E+01  0.0000000E+00  0.1224490E+00  0.4865734E-01 -0.7379164E-01  0.9911903E+00  0.4242295E+00  0.0000000E+00  0.0000000E+00
  0.1795918E+01  0.0000000E+00  0.1224490E+00  0.4866170E-01 -0.7378728E-01  0.9911910E+00  0.4242298E+00  0.0000000E+00  0.0000000E+00
  0.1836735E+01  0.0000000E+00  0.1224490E+00  0.4866536E-01 -0.7378362E-01  0.9911916E+00  0.4242300E+00  0.0000000E+00  0.0000000E+00
  0.1877551E+01  0.0000000E+00  0.1224490E+00  0.4866826E-01 -0.7378072E-01  0.9911921E+00  0.4242302E+00  0.0000000E+00  0.0000000E+00
  0.1918367E+01  0.0000000E+00  0.1224490E+00  0.4867035E-01 -0.7377863E-01  0.9911924E+00  0.4242304E+00  0.0000000E+00  0.0000000E+00
  0.1959184E+01  0.0000000E+00  0.1224490E+00  0.4867162E-01 -0.7377736E-01  0.9911926E+00  0.4242305E+00  0.0000000E+00  0.0000000E+00
  0.2000000E+01  0.0000000E+00  0.1224490E+00  0.4867205E-01 -0.7377693E-01  0.9911927E+00  0.4242305E+00  0.0000000E+00  0.0000000E+00
  0.0000000E+00  0.0000000E+00  0.1632653E+00  0.7016544E-01 -0.9309987E-01  0.9879580E+00  0.4228460E+00  0.0000000E+00  0.0000000E+00
  0.4081633E-01  0.0000000E+00  0.1632653E+00  0.7016489E-01 -0.9310042E-01  0.9879579E+00  0.4228460E+00  0.0000000E+00  0.0000000E+00
  0.8163265E-01  0.0000000E+00  0.1632653E+00  0.7016325E-01 -0.9310205E-01  0.9879576E+00  0.4228459E+00  0.0000000E+00  0.0000000E+00
  0.1224490E+00  0.0000000E+00  0.1632653E+00  0.7016055E-01 -0.9310475E-01  0.9879572E+00  0.4228457E+00  0.0000000E+00  0.0000000E+00
  0.1632653E+00  0.0000000E+00  0.1632653E+00  0.7015684E-01 -0.9310847E-01  0.9879565E+00  0.4228454E+00  0.0000000E+00  0.0000000E+00
  0.2040816E+00  0.0000000E+00  0.1632653E+00  0.7015217E-01 -0.9311314E-01  0.9879557E+00  0.4228450E+00  0.0000000E+00  0.0000000E+00
  0.2448980E+00  0.0000000E+00  0.1632653E+00  0.7014661E-01 -0.9311869E-01  0.9879547E+00  0.4228446E+00  0.0000000E+00  0.0000000E+00
  0.2857143E+00  0.0000000E+00  0.1632653E+00  0.7014027E-01 -0.9312503E-01  0.9879536E+00  0.4228442E+00  0.0000000E+00  0.0000000E+00
  0.3265306E+00  0.0000000E+00  0.1632653E+00  0.7013325E-01 -0.9313206E-01  0.9879524E+00  0.4228436E+00  0.0000000E+00  0.0000000E+00
  0.3673469E+00  0.0000000E+00  0.1632653E+00  0.7012566E-01 -0.9313965E-01  0.9879511E+00  0.4228431E+00  0.0000000E+00  0.0000000E+00
  0.4081633E+00  0.0000000E+00  0.1632653E+00  0.7011763E-01 -0.9314768E-01  0.9879497E+00  0.4228425E+00  0.0000000E+00  0.0000000E+00
  0.4489796E+00  0.0000000E+00  0.1632653E+00  0.7010930E-01 -0.9315600E-01  0.9879483E+00  0.4228419E+00  0.0000000E+00  0.0000000E+00
  0.4897959E+00  0.0000000E+00  0.1632653E+00  0.7010083E-01 -0.9316448E-01  0.9879468E+00  0.4228412E+00  0.0000000E+00  0.0000000E+00
  0.5306122E+00  0.0000000E+00  0.1632653E+00  0.7009235E-01 -0.9317296E-01  0.9879453E+00  0.4228406E+00  0.0000000E+00  0.0000000E+00
  0.5714286E+00  0.0000000E+00  0.1632653E+00  0.7008401E-01 -0.9318129E-01  0.9879439E+00  0.4228400E+00  0.0000000E+00  0.0000000E+00
  0.6122449E+00  0.0000000E+00  0.1632653E+00  0.7007598E-01 -0.9318932E-01  0.9879425E+00  0.4228394E+00  0.0000000E+00  0.0000000E+00
  0.6530612E+00  0.0000000E+00  0.1632653E+00  0.7006840E-01 -0.9319690E-01  0.9879412E+00  0.4228388E+00  0.0000000E+00  0.0000000E+00
  0.6938776E+00  0.0000000E+00  0.1632653E+00  0.7006141E-01 -0.9320390E-01  0.9879400E+00  0.4228383E+00  0.0000000E+00  0.0000000E+00
  0.7346939E+00  0.0000000E+00  0.1632653E+00  0.7005515E-01 -0.9321016E-01  0.9879389E+00  0.4228378E+00  0.0000000E+00  0.0000000E+00