title = "dataset feddes"
variables = "time", "inflow", "outflow", "change in storage", "root water uptake" 
zone t = "mass balance -  variably saturated flow", f=point
  1.0000E-10  1.2277E+02  0.0000E+00  1.2277E+02  0.0000E+00
  6.0000E-10  1.2277E+02  0.0000E+00  1.2277E+02  0.0000E+00
  3.1000E-09  1.2277E+02  0.0000E+00  1.2277E+02  0.0000E+00
  1.5600E-08  1.2273E+02  0.0000E+00  1.2273E+02  0.0000E+00
  7.8100E-08  1.2256E+02  0.0000E+00  1.2256E+02  0.0000E+00
  3.9060E-07  1.2173E+02  0.0000E+00  1.2173E+02  0.0000E+00
  1.9531E-06  1.1779E+02  0.0000E+00  1.1779E+02  0.0000E+00
  9.7656E-06  1.0239E+02  0.0000E+00  1.0239E+02  0.0000E+00
  4.3892E-05  6.9087E+01  0.0000E+00  6.9087E+01  0.0000E+00
  9.4526E-05  4.7124E+01  0.0000E+00  4.7124E+01  0.0000E+00
  1.6916E-04  3.2093E+01  0.0000E+00  3.2093E+01  0.0000E+00
  2.8115E-04  2.1603E+01  0.0000E+00  2.1603E+01  0.0000E+00
  4.6057E-04  1.4382E+01  0.0000E+00  1.4382E+01  0.0000E+00
  7.9728E-04  9.5478E+00  0.0000E+00  9.5478E+00  0.0000E+00
  1.4588E-03  6.3996E+00  0.0000E+00  6.3996E+00  0.0000E+00
  2.2143E-03  4.7666E+00  0.0000E+00  4.7666E+00  0.0000E+00
  3.2807E-03  3.6360E+00  0.0000E+00  3.6360E+00  0.0000E+00
  5.1212E-03  2.7345E+00  0.0000E+00  2.7345E+00  0.0000E+00
  7.4804E-03  2.1358E+00  0.0000E+00  2.1358E+00  0.0000E+00
  1.0659E-02  1.6985E+00  0.0000E+00  1.6985E+00  0.0000E+00
  1.5842E-02  1.3272E+00  0.0000E+00  1.3272E+00  0.0000E+00
  2.2011E-02  1.0738E+00  0.0000E+00  1.0738E+00  0.0000E+00
  3.1565E-02  8.5671E-01  0.0000E+00  8.5671E-01  0.0000E+00
  4.3375E-02  6.9833E-01  0.0000E+00  6.9833E-01  0.0000E+00
  5.9667E-02  5.6919E-01  0.0000E+00  5.6919E-01  0.0000E+00
  8.2297E-02  4.6288E-01  0.0000E+00  4.6288E-01  0.0000E+00
  1.1197E-01  3.7839E-01  0.0000E+00  3.7839E-01  0.0000E+00
  1.5184E-01  3.0925E-01  0.0000E+00  3.0925E-01  0.0000E+00
  2.0587E-01  2.5209E-01  0.0000E+00  2.5209E-01  0.0000E+00
  2.7954E-01  2.0465E-01  0.0000E+00  2.0465E-01  0.0000E+00
  3.8117E-01  1.6507E-01  0.0000E+00  1.6507E-01  0.0000E+00
  5.2409E-01  1.3188E-01  0.0000E+00  1.3188E-01  0.0000E+00
  7.2160E-01  1.0467E-01  0.0000E+00  1.0467E-01  0.0000E+00
  1.0000E+00  8.2263E-02  0.0000E+00  8.2263E-02  0.0000E+00
  1.4057E+00  2.3648E-01  0.0000E+00  2.3648E-01  0.0000E+00
  1.6085E+00  2.2918E-01  0.0000E+00  2.2918E-01  0.0000E+00
  1.7982E+00  2.2375E-01  0.0000E+00  2.2375E-01  0.0000E+00
  1.9994E+00  2.1914E-01  0.0000E+00  2.1914E-01  0.0000E+00
  2.0000E+00  2.1912E-01  0.0000E+00  2.1912E-01  0.0000E+00
  2.0031E+00  2.1905E-01  0.0000E+00  2.1905E-01  0.0000E+00
  2.0184E+00  2.1870E-01  0.0000E+00  2.1870E-01  0.0000E+00
  2.0951E+00  2.1710E-01  0.0000E+00  2.1710E-01  0.0000E+00
  2.3005E+00  2.1359E-01  0.0000E+00  2.1359E-01  0.0000E+00
  2.5080E+00  2.1050E-01  0.0000E+00  2.1050E-01  0.0000E+00
  2.7150E+00  2.0732E-01  0.0000E+00  2.0732E-01  0.0000E+00
  2.9257E+00  2.0247E-01  0.0000E+00  2.0247E-01  0.0000E+00
  3.0000E+00  2.0034E-01  0.0000E+00  2.0034E-01  0.0000E+00
  3.2499E+00  1.8240E-01  0.0000E+00  1.8240E-01  0.0000E+00
  3.5685E+00  1.7280E-01  3.7669E-02  1.3513E-01  0.0000E+00
  4.0000E+00  1.7280E-01  1.1262E-01  6.0185E-02  0.0000E+00
  5.0000E+00  1.7280E-01  1.6309E-01  9.7124E-03  0.0000E+00
  6.0000E+00  1.7280E-01  1.7146E-01  1.3374E-03  0.0000E+00
  7.0000E+00  1.7280E-01  1.7262E-01  1.8347E-04  0.0000E+00
  8.0000E+00  1.7280E-01  1.7277E-01  2.5699E-05  0.0000E+00
  9.0000E+00  1.7280E-01  1.7267E-01 -5.3258E-05  0.0000E+00
  1.0000E+01  1.7280E-01  1.7258E-01 -3.0453E-05  0.0000E+00
  1.1000E+01  1.7280E-01  1.7252E-01 -2.4839E-05  0.0000E+00
  1.2000E+01  1.7280E-01  1.7245E-01 -2.3780E-05  0.0000E+00
  1.3000E+01  1.7280E-01  1.7239E-01 -2.3490E-05  0.0000E+00
  1.4000E+01  1.7280E-01  1.7233E-01 -2.3378E-05  0.0000E+00
  1.5000E+01  1.7280E-01  1.7227E-01 -2.3639E-05  0.0000E+00
  1.6000E+01  1.7280E-01  1.7220E-01 -2.3628E-05  0.0000E+00
  1.7000E+01  1.7280E-01  1.7214E-01 -2.3718E-05  0.0000E+00
  1.8000E+01  1.7280E-01  1.7208E-01 -2.3683E-05  0.0000E+00
  1.9000E+01  1.7280E-01  1.7202E-01 -2.3390E-05  0.0000E+00
  2.0000E+01  1.7280E-01  1.7195E-01 -2.3453E-05  0.0000E+00
  2.1000E+01  1.7280E-01  1.7189E-01 -2.3349E-05  0.0000E+00
  2.2000E+01  1.7280E-01  1.7183E-01 -2.3260E-05  0.0000E+00
  2.3000E+01  1.7280E-01  1.7176E-01 -2.3202E-05  0.0000E+00
  2.4000E+01  1.7280E-01  1.7170E-01 -2.3106E-05  0.0000E+00
  2.5000E+01  1.7280E-01  1.7164E-01 -2.3082E-05  0.0000E+00
  2.6000E+01  1.7280E-01  1.7158E-01 -2.3066E-05  0.0000E+00
  2.7000E+01  1.7280E-01  1.7151E-01 -2.3046E-05  0.0000E+00
  2.8000E+01  1.7280E-01  1.7145E-01 -2.2992E-05  0.0000E+00
  2.9000E+01  1.7280E-01  1.7139E-01 -2.2867E-05  0.0000E+00
  3.0000E+01  1.7280E-01  1.7132E-01 -2.2895E-05  0.0000E+00
  3.1000E+01  1.7280E-01  1.7126E-01 -2.2892E-05  0.0000E+00
  3.2000E+01  1.7280E-01  1.7120E-01 -2.2863E-05  0.0000E+00
  3.3000E+01  1.7280E-01  1.7113E-01 -2.2816E-05  0.0000E+00
  3.4000E+01  1.7280E-01  1.7107E-01 -2.2828E-05  0.0000E+00
  3.5000E+01  1.7280E-01  1.7101E-01 -2.2770E-05  0.0000E+00
  3.6000E+01  1.7280E-01  1.7094E-01 -2.2652E-05  0.0000E+00
  3.7000E+01  1.7280E-01  1.7088E-01 -2.2588E-05  0.0000E+00
  3.8000E+01  1.7280E-01  1.7082E-01 -2.2474E-05  0.0000E+00
  3.9000E+01  1.7280E-01  1.7075E-01 -2.2290E-05  0.0000E+00
  4.0000E+01  1.7280E-01  1.7069E-01 -2.2163E-05  0.0000E+00
  4.1000E+01  1.7280E-01  1.7063E-01 -2.2029E-05  0.0000E+00
  4.2000E+01  1.7280E-01  1.7056E-01 -2.1869E-05  0.0000E+00
  4.3000E+01  1.7280E-01  1.7050E-01 -2.1737E-05  0.0000E+00
  4.4000E+01  1.7280E-01  1.7044E-01 -2.1562E-05  0.0000E+00
  4.5000E+01  1.7280E-01  1.7037E-01 -2.1380E-05  0.0000E+00
  4.6000E+01  1.7280E-01  1.7031E-01 -2.1077E-05  0.0000E+00
  4.7000E+01  1.7280E-01  1.7025E-01 -2.0837E-05  0.0000E+00
  4.8000E+01  1.7280E-01  1.7018E-01 -2.0563E-05  0.0000E+00
  4.9000E+01  1.7280E-01  1.7012E-01 -2.0337E-05  0.0000E+00
  5.0000E+01  1.7280E-01  1.7006E-01 -2.0104E-05  0.0000E+00
  5.1000E+01  1.7280E-01  1.6999E-01 -1.9727E-05  0.0000E+00
  5.2000E+01  1.7280E-01  1.6993E-01 -1.9284E-05  0.0000E+00
  5.3000E+01  1.7280E-01  1.6987E-01 -1.9182E-05  0.0000E+00
  5.4000E+01  1.7280E-01  1.6980E-01 -1.8777E-05  0.0000E+00
  5.5000E+01  1.7280E-01  1.6974E-01 -1.8529E-05  0.0000E+00
  5.6000E+01  1.7280E-01  1.6968E-01 -1.8010E-05  0.0000E+00
  5.7000E+01  1.7280E-01  1.6966E-01  4.4250E-07  0.0000E+00
  5.8000E+01  1.7280E-01  1.6966E-01  4.7532E-06  0.0000E+00
  5.9000E+01  1.7280E-01  1.6966E-01  5.6841E-06  0.0000E+00
  6.0000E+01  1.7280E-01  1.6966E-01  5.9242E-06  0.0000E+00
