title = "dataset feddes"
variables = "x", "y", "z", "h_w", "p_w", "s_w", "theta_w", "transp", "evap"
zone t = "Flow variables, solution time =  4.500E+01 days        " i =   50, j =   50, k =    1,  f=point
  0.0000000E+00  0.0000000E+00  0.0000000E+00  0.0000000E+00  0.0000000E+00  0.1000000E+01  0.4280000E+00  0.0000000E+00  0.0000000E+00
  0.4081633E-01  0.0000000E+00  0.0000000E+00  0.0000000E+00  0.0000000E+00  0.1000000E+01  0.4280000E+00  0.0000000E+00  0.0000000E+00
  0.8163265E-01  0.0000000E+00  0.0000000E+00  0.0000000E+00  0.0000000E+00  0.1000000E+01  0.4280000E+00  0.0000000E+00  0.0000000E+00
  0.1224490E+00  0.0000000E+00  0.0000000E+00  0.0000000E+00  0.0000000E+00  0.1000000E+01  0.4280000E+00  0.0000000E+00  0.0000000E+00
  0.1632653E+00  0.0000000E+00  0.0000000E+00  0.0000000E+00  0.0000000E+00  0.1000000E+01  0.4280000E+00  0.0000000E+00  0.0000000E+00
  0.2040816E+00  0.0000000E+00  0.0000000E+00  0.0000000E+00  0.0000000E+00  0.1000000E+01  0.4280000E+00  0.0000000E+00  0.0000000E+00
  0.2448980E+00  0.0000000E+00  0.0000000E+00  0.0000000E+00  0.0000000E+00  0.1000000E+01  0.4280000E+00  0.0000000E+00  0.0000000E+00
  0.2857143E+00  0.0000000E+00  0.0000000E+00  0.0000000E+00  0.0000000E+00  0.1000000E+01  0.4280000E+00  0.0000000E+00  0.0000000E+00
  0.3265306E+00  0.0000000E+00  0.0000000E+00  0.0000000E+00  0.0000000E+00  0.1000000E+01  0.4280000E+00  0.0000000E+00  0.0000000E+00
  0.3673469E+00  0.0000000E+00  0.0000000E+00  0.0000000E+00  0.0000000E+00  0.1000000E+01  0.4280000E+00  0.0000000E+00  0.0000000E+00
  0.4081633E+00  0.0000000E+00  0.0000000E+00  0.0000000E+00  0.0000000E+00  0.1000000E+01  0.4280000E+00  0.0000000E+00  0.0000000E+00
  0.4489796E+00  0.0000000E+00  0.0000000E+00  0.0000000E+00  0.0000000E+00  0.1000000E+01  0.4280000E+00  0.0000000E+00  0.0000000E+00
  0.4897959E+00  0.0000000E+00  0.0000000E+00  0.0000000E+00  0.0000000E+00  0.1000000E+01  0.4280000E+00  0.0000000E+00  0.0000000E+00
  0.5306122E+00  0.0000000E+00  0.0000000E+00  0.0000000E+00  0.0000000E+00  0.1000000E+01  0.4280000E+00  0.0000000E+00  0.0000000E+00
  0.5714286E+00  0.0000000E+00  0.0000000E+00  0.0000000E+00  0.0000000E+00  0.1000000E+01  0.4280000E+00  0.0000000E+00  0.0000000E+00
  0.6122449E+00  0.0000000E+00  0.0000000E+00  0.0000000E+00  0.0000000E+00  0.1000000E+01  0.4280000E+00  0.0000000E+00  0.0000000E+00
  0.6530612E+00  0.0000000E+00  0.0000000E+00  0.0000000E+00  0.0000000E+00  0.1000000E+01  0.4280000E+00  0.0000000E+00  0.0000000E+00
  0.6938776E+00  0.0000000E+00  0.0000000E+00  0.0000000E+00  0.0000000E+00  0.1000000E+01  0.4280000E+00  0.0000000E+00  0.0000000E+00
  0.7346939E+00  0.0000000E+00  0.0000000E+00  0.0000000E+00  0.0000000E+00  0.1000000E+01  0.4280000E+00  0.0000000E+00  0.0000000E+00
  0.7755102E+00  0.0000000E+00  0.0000000E+00  0.0000000E+00  0.0000000E+00  0.1000000E+01  0.4280000E+00  0.0000000E+00  0.0000000E+00
  0.8163265E+00  0.0000000E+00  0.0000000E+00  0.0000000E+00  0.0000000E+00  0.1000000E+01  0.4280000E+00  0.0000000E+00  0.0000000E+00
  0.8571429E+00  0.0000000E+00  0.0000000E+00  0.0000000E+00  0.0000000E+00  0.1000000E+01  0.4280000E+00  0.0000000E+00  0.0000000E+00
  0.8979592E+00  0.0000000E+00  0.0000000E+00  0.0000000E+00  0.0000000E+00  0.1000000E+01  0.4280000E+00  0.0000000E+00  0.0000000E+00
  0.9387755E+00  0.0000000E+00  0.0000000E+00  0.0000000E+00  0.0000000E+00  0.1000000E+01  0.4280000E+00  0.0000000E+00  0.0000000E+00
  0.9795918E+00  0.0000000E+00  0.0000000E+00  0.0000000E+00  0.0000000E+00  0.1000000E+01  0.4280000E+00  0.0000000E+00  0.0000000E+00
  0.1020408E+01  0.0000000E+00  0.0000000E+00  0.0000000E+00  0.0000000E+00  0.1000000E+01  0.4280000E+00  0.0000000E+00  0.0000000E+00
  0.1061224E+01  0.0000000E+00  0.0000000E+00  0.0000000E+00  0.0000000E+00  0.1000000E+01  0.4280000E+00  0.0000000E+00  0.0000000E+00
  0.1102041E+01  0.0000000E+00  0.0000000E+00  0.0000000E+00  0.0000000E+00  0.1000000E+01  0.4280000E+00  0.0000000E+00  0.0000000E+00
  0.1142857E+01  0.0000000E+00  0.0000000E+00  0.0000000E+00  0.0000000E+00  0.1000000E+01  0.4280000E+00  0.0000000E+00  0.0000000E+00
  0.1183673E+01  0.0000000E+00  0.0000000E+00  0.0000000E+00  0.0000000E+00  0.1000000E+01  0.4280000E+00  0.0000000E+00  0.0000000E+00
  0.1224490E+01  0.0000000E+00  0.0000000E+00  0.0000000E+00  0.0000000E+00  0.1000000E+01  0.4280000E+00  0.0000000E+00  0.0000000E+00
  0.1265306E+01  0.0000000E+00  0.0000000E+00  0.0000000E+00  0.0000000E+00  0.1000000E+01  0.4280000E+00  0.0000000E+00  0.0000000E+00
  0.1306122E+01  0.0000000E+00  0.0000000E+00  0.0000000E+00  0.0000000E+00  0.1000000E+01  0.4280000E+00  0.0000000E+00  0.0000000E+00
  0.1346939E+01  0.0000000E+00  0.0000000E+00  0.0000000E+00  0.0000000E+00  0.1000000E+01  0.4280000E+00  0.0000000E+00  0.0000000E+00
  0.1387755E+01  0.0000000E+00  0.0000000E+00  0.0000000E+00  0.0000000E+00  0.1000000E+01  0.4280000E+00  0.0000000E+00  0.0000000E+00
  0.1428571E+01  0.0000000E+00  0.0000000E+00  0.0000000E+00  0.0000000E+00  0.1000000E+01  0.4280000E+00  0.0000000E+00  0.0000000E+00
  0.1469388E+01  0.0000000E+00  0.0000000E+00  0.0000000E+00  0.0000000E+00  0.1000000E+01  0.4280000E+00  0.0000000E+00  0.0000000E+00
  0.1510204E+01  0.0000000E+00  0.0000000E+00  0.0000000E+00  0.0000000E+00  0.1000000E+01  0.4280000E+00  0.0000000E+00  0.0000000E+00
  0.1551020E+01  0.0000000E+00  0.0000000E+00  0.0000000E+00  0.0000000E+00  0.1000000E+01  0.4280000E+00  0.0000000E+00  0.0000000E+00
  0.1591837E+01  0.0000000E+00  0.0000000E+00  0.0000000E+00  0.0000000E+00  0.1000000E+01  0.4280000E+00  0.0000000E+00  0.0000000E+00
  0.1632653E+01  0.0000000E+00  0.0000000E+00  0.0000000E+00  0.0000000E+00  0.1000000E+01  0.4280000E+00  0.0000000E+00  0.0000000E+00
  0.1673469E+01  0.0000000E+00  0.0000000E+00  0.0000000E+00  0.0000000E+00  0.1000000E+01  0.4280000E+00  0.0000000E+00  0.0000000E+00
  0.1714286E+01  0.0000000E+00  0.0000000E+00  0.0000000E+00  0.0000000E+00  0.1000000E+01  0.4280000E+00  0.0000000E+00  0.0000000E+00
  0.1755102E+01  0.0000000E+00  0.0000000E+00  0.0000000E+00  0.0000000E+00  0.1000000E+01  0.4280000E+00  0.0000000E+00  0.0000000E+00
  0.1795918E+01  0.0000000E+00  0.0000000E+00  0.0000000E+00  0.0000000E+00  0.1000000E+01  0.4280000E+00  0.0000000E+00  0.0000000E+00
  0.1836735E+01  0.0000000E+00  0.0000000E+00  0.0000000E+00  0.0000000E+00  0.1000000E+01  0.4280000E+00  0.0000000E+00  0.0000000E+00
  0.1877551E+01  0.0000000E+00  0.0000000E+00  0.0000000E+00  0.0000000E+00  0.1000000E+01  0.4280000E+00  0.0000000E+00  0.0000000E+00
  0.1918367E+01  0.0000000E+00  0.0000000E+00  0.0000000E+00  0.0000000E+00  0.1000000E+01  0.4280000E+00  0.0000000E+00  0.0000000E+00
  0.1959184E+01  0.0000000E+00  0.0000000E+00  0.0000000E+00  0.0000000E+00  0.1000000E+01  0.4280000E+00  0.0000000E+00  0.0000000E+00
  0.2000000E+01  0.0000000E+00  0.0000000E+00  0.0000000E+00  0.0000000E+00  0.1000000E+01  0.4280000E+00  0.0000000E+00  0.0000000E+00
  0.0000000E+00  0.0000000E+00  0.4081633E-01  0.1317320E-01 -0.2764312E-01  0.9976900E+00  0.4270113E+00  0.0000000E+00  0.0000000E+00
  0.4081633E-01  0.0000000E+00  0.4081633E-01  0.1317306E-01 -0.2764327E-01  0.9976900E+00  0.4270113E+00  0.0000000E+00  0.0000000E+00
  0.8163265E-01  0.0000000E+00  0.4081633E-01  0.1317262E-01 -0.2764370E-01  0.9976900E+00  0.4270113E+00  0.0000000E+00  0.0000000E+00
  0.1224490E+00  0.0000000E+00  0.4081633E-01  0.1317190E-01 -0.2764442E-01  0.9976899E+00  0.4270113E+00  0.0000000E+00  0.0000000E+00
  0.1632653E+00  0.0000000E+00  0.4081633E-01  0.1317092E-01 -0.2764541E-01  0.9976898E+00  0.4270112E+00  0.0000000E+00  0.0000000E+00
  0.2040816E+00  0.0000000E+00  0.4081633E-01  0.1316967E-01 -0.2764665E-01  0.9976896E+00  0.4270112E+00  0.0000000E+00  0.0000000E+00
  0.2448980E+00  0.0000000E+00  0.4081633E-01  0.1316820E-01 -0.2764812E-01  0.9976895E+00  0.4270111E+00  0.0000000E+00  0.0000000E+00
  0.2857143E+00  0.0000000E+00  0.4081633E-01  0.1316652E-01 -0.2764980E-01  0.9976893E+00  0.4270110E+00  0.0000000E+00  0.0000000E+00
  0.3265306E+00  0.0000000E+00  0.4081633E-01  0.1316467E-01 -0.2765166E-01  0.9976891E+00  0.4270109E+00  0.0000000E+00  0.0000000E+00
  0.3673469E+00  0.0000000E+00  0.4081633E-01  0.1316267E-01 -0.2765366E-01  0.9976888E+00  0.4270108E+00  0.0000000E+00  0.0000000E+00
  0.4081633E+00  0.0000000E+00  0.4081633E-01  0.1316056E-01 -0.2765577E-01  0.9976886E+00  0.4270107E+00  0.0000000E+00  0.0000000E+00
  0.4489796E+00  0.0000000E+00  0.4081633E-01  0.1315838E-01 -0.2765795E-01  0.9976883E+00  0.4270106E+00  0.0000000E+00  0.0000000E+00
  0.4897959E+00  0.0000000E+00  0.4081633E-01  0.1315616E-01 -0.2766016E-01  0.9976881E+00  0.4270105E+00  0.0000000E+00  0.0000000E+00
  0.5306122E+00  0.0000000E+00  0.4081633E-01  0.1315396E-01 -0.2766236E-01  0.9976878E+00  0.4270104E+00  0.0000000E+00  0.0000000E+00
  0.5714286E+00  0.0000000E+00  0.4081633E-01  0.1315181E-01 -0.2766451E-01  0.9976876E+00  0.4270103E+00  0.0000000E+00  0.0000000E+00
  0.6122449E+00  0.0000000E+00  0.4081633E-01  0.1314976E-01 -0.2766657E-01  0.9976873E+00  0.4270102E+00  0.0000000E+00  0.0000000E+00
  0.6530612E+00  0.0000000E+00  0.4081633E-01  0.1314783E-01 -0.2766850E-01  0.9976871E+00  0.4270101E+00  0.0000000E+00  0.0000000E+00
  0.6938776E+00  0.0000000E+00  0.4081633E-01  0.1314608E-01 -0.2767025E-01  0.9976869E+00  0.4270100E+00  0.0000000E+00  0.0000000E+00
  0.7346939E+00  0.0000000E+00  0.4081633E-01  0.1314453E-01 -0.2767180E-01  0.9976867E+00  0.4270099E+00  0.0000000E+00  0.0000000E+00
  0.7755102E+00  0.0000000E+00  0.4081633E-01  0.1314321E-01 -0.2767311E-01  0.9976866E+00  0.4270099E+00  0.0000000E+00  0.0000000E+00
  0.8163265E+00  0.0000000E+00  0.4081633E-01  0.1314216E-01 -0.2767416E-01  0.9976865E+00  0.4270098E+00  0.0000000E+00  0.0000000E+00
  0.8571429E+00  0.0000000E+00  0.4081633E-01  0.1314140E-01 -0.2767492E-01  0.9976864E+00  0.4270098E+00  0.0000000E+00  0.0000000E+00
  0.8979592E+00  0.0000000E+00  0.4081633E-01  0.1314095E-01 -0.2767538E-01  0.9976863E+00  0.4270098E+00  0.0000000E+00  0.0000000E+00
  0.9387755E+00  0.0000000E+00  0.4081633E-01  0.1314082E-01 -0.2767551E-01  0.9976863E+00  0.4270097E+00  0.0000000E+00  0.0000000E+00
  0.9795918E+00  0.0000000E+00  0.4081633E-01  0.1314101E-01 -0.2767532E-01  0.9976863E+00  0.4270098E+00  0.0000000E+00  0.0000000E+00
  0.1020408E+01  0.0000000E+00  0.4081633E-01  0.1314152E-01 -0.2767480E-01  0.9976864E+00  0.4270098E+00  0.0000000E+00  0.0000000E+00
  0.1061224E+01  0.0000000E+00  0.4081633E-01  0.1314236E-01 -0.2767396E-01  0.9976865E+00  0.4270098E+00  0.0000000E+00  0.0000000E+00
  0.1102041E+01  0.0000000E+00  0.4081633E-01  0.1314352E-01 -0.2767281E-01  0.9976866E+00  0.4270099E+00  0.0000000E+00  0.0000000E+00
  0.1142857E+01  0.0000000E+00  0.4081633E-01  0.1314496E-01 -0.2767136E-01  0.9976868E+00  0.4270100E+00  0.0000000E+00  0.0000000E+00
  0.1183673E+01  0.0000000E+00  0.4081633E-01  0.1314668E-01 -0.2766964E-01  0.9976870E+00  0.4270100E+00  0.0000000E+00  0.0000000E+00
  0.1224490E+01  0.0000000E+00  0.4081633E-01  0.1314865E-01 -0.2766767E-01  0.9976872E+00  0.4270101E+00  0.0000000E+00  0.0000000E+00
  0.1265306E+01  0.0000000E+00  0.4081633E-01  0.1315084E-01 -0.2766548E-01  0.9976875E+00  0.4270102E+00  0.0000000E+00  0.0000000E+00
  0.1306122E+01  0.0000000E+00  0.4081633E-01  0.1315322E-01 -0.2766311E-01  0.9976877E+00  0.4270104E+00  0.0000000E+00  0.0000000E+00
  0.1346939E+01  0.0000000E+00  0.4081633E-01  0.1315574E-01 -0.2766059E-01  0.9976880E+00  0.4270105E+00  0.0000000E+00  0.0000000E+00
  0.1387755E+01  0.0000000E+00  0.4081633E-01  0.1315838E-01 -0.2765795E-01  0.9976883E+00  0.4270106E+00  0.0000000E+00  0.0000000E+00
  0.1428571E+01  0.0000000E+00  0.4081633E-01  0.1316109E-01 -0.2765524E-01  0.9976886E+00  0.4270107E+00  0.0000000E+00  0.0000000E+00
  0.1469388E+01  0.0000000E+00  0.4081633E-01  0.1316383E-01 -0.2765250E-01  0.9976890E+00  0.4270109E+00  0.0000000E+00  0.0000000E+00
  0.1510204E+01  0.0000000E+00  0.4081633E-01  0.1316656E-01 -0.2764977E-01  0.9976893E+00  0.4270110E+00  0.0000000E+00  0.0000000E+00
  0.1551020E+01  0.0000000E+00  0.4081633E-01  0.1316924E-01 -0.2764709E-01  0.9976896E+00  0.4270111E+00  0.0000000E+00  0.0000000E+00
  0.1591837E+01  0.0000000E+00  0.4081633E-01  0.1317183E-01 -0.2764449E-01  0.9976899E+00  0.4270113E+00  0.0000000E+00  0.0000000E+00
  0.1632653E+01  0.0000000E+00  0.4081633E-01  0.1317431E-01 -0.2764202E-01  0.9976902E+00  0.4270114E+00  0.0000000E+00  0.0000000E+00
  0.1673469E+01  0.0000000E+00  0.4081633E-01  0.1317662E-01 -0.2763971E-01  0.9976904E+00  0.4270115E+00  0.0000000E+00  0.0000000E+00
  0.1714286E+01  0.0000000E+00  0.4081633E-01  0.1317874E-01 -0.2763759E-01  0.9976907E+00  0.4270116E+00  0.0000000E+00  0.0000000E+00
  0.1755102E+01  0.0000000E+00  0.4081633E-01  0.1318064E-01 -0.2763569E-01  0.9976909E+00  0.4270117E+00  0.0000000E+00  0.0000000E+00
  0.1795918E+01  0.0000000E+00  0.4081633E-01  0.1318229E-01 -0.2763404E-01  0.9976911E+00  0.4270118E+00  0.0000000E+00  0.0000000E+00
  0.1836735E+01  0.0000000E+00  0.4081633E-01  0.1318367E-01 -0.2763265E-01  0.9976912E+00  0.4270118E+00  0.0000000E+00  0.0000000E+00
  0.1877551E+01  0.0000000E+00  0.4081633E-01  0.1318477E-01 -0.2763156E-01  0.9976914E+00  0.4270119E+00  0.0000000E+00  0.0000000E+00
  0.1918367E+01  0.0000000E+00  0.4081633E-01  0.1318556E-01 -0.2763076E-01  0.9976915E+00  0.4270119E+00  0.0000000E+00  0.0000000E+00
  0.1959184E+01  0.0000000E+00  0.4081633E-01  0.1318604E-01 -0.2763028E-01  0.9976915E+00  0.4270120E+00  0.0000000E+00  0.0000000E+00
  0.2000000E+01  0.0000000E+00  0.4081633E-01  0.1318620E-01 -0.2763012E-01  0.9976915E+00  0.4270120E+00  0.0000000E+00  0.0000000E+00
  0.0000000E+00  0.0000000E+00  0.8163265E-01  0.2949884E-01 -0.5213381E-01  0.9945000E+00  0.4256460E+00  0.0000000E+00  0.0000000E+00
  0.4081633E-01  0.0000000E+00  0.8163265E-01  0.2949853E-01 -0.5213413E-01  0.9945000E+00  0.4256460E+00  0.0000000E+00  0.0000000E+00
  0.8163265E-01  0.0000000E+00  0.8163265E-01  0.2949759E-01 -0.5213507E-01  0.9944998E+00  0.4256459E+00  0.0000000E+00  0.0000000E+00
  0.1224490E+00  0.0000000E+00  0.8163265E-01  0.2949604E-01 -0.5213662E-01  0.9944996E+00  0.4256458E+00  0.0000000E+00  0.0000000E+00
  0.1632653E+00  0.0000000E+00  0.8163265E-01  0.2949390E-01 -0.5213875E-01  0.9944993E+00  0.4256457E+00  0.0000000E+00  0.0000000E+00
  0.2040816E+00  0.0000000E+00  0.8163265E-01  0.2949122E-01 -0.5214143E-01  0.9944989E+00  0.4256455E+00  0.0000000E+00  0.0000000E+00
  0.2448980E+00  0.0000000E+00  0.8163265E-01  0.2948804E-01 -0.5214461E-01  0.9944985E+00  0.4256453E+00  0.0000000E+00  0.0000000E+00
  0.2857143E+00  0.0000000E+00  0.8163265E-01  0.2948442E-01 -0.5214824E-01  0.9944979E+00  0.4256451E+00  0.0000000E+00  0.0000000E+00
  0.3265306E+00  0.0000000E+00  0.8163265E-01  0.2948041E-01 -0.5215225E-01  0.9944974E+00  0.4256449E+00  0.0000000E+00  0.0000000E+00
  0.3673469E+00  0.0000000E+00  0.8163265E-01  0.2947608E-01 -0.5215657E-01  0.9944967E+00  0.4256446E+00  0.0000000E+00  0.0000000E+00
  0.4081633E+00  0.0000000E+00  0.8163265E-01  0.2947153E-01 -0.5216113E-01  0.9944961E+00  0.4256443E+00  0.0000000E+00  0.0000000E+00
  0.4489796E+00  0.0000000E+00  0.8163265E-01  0.2946682E-01 -0.5216584E-01  0.9944954E+00  0.4256440E+00  0.0000000E+00  0.0000000E+00
  0.4897959E+00  0.0000000E+00  0.8163265E-01  0.2946204E-01 -0.5217062E-01  0.9944947E+00  0.4256437E+00  0.0000000E+00  0.0000000E+00
  0.5306122E+00  0.0000000E+00  0.8163265E-01  0.2945728E-01 -0.5217537E-01  0.9944940E+00  0.4256435E+00  0.0000000E+00  0.0000000E+00
  0.5714286E+00  0.0000000E+00  0.8163265E-01  0.2945263E-01 -0.5218002E-01  0.9944934E+00  0.4256432E+00  0.0000000E+00  0.0000000E+00
  0.6122449E+00  0.0000000E+00  0.8163265E-01  0.2944819E-01 -0.5218447E-01  0.9944927E+00  0.4256429E+00  0.0000000E+00  0.0000000E+00
  0.6530612E+00  0.0000000E+00  0.8163265E-01  0.2944402E-01 -0.5218863E-01  0.9944921E+00  0.4256426E+00  0.0000000E+00  0.0000000E+00
  0.6938776E+00  0.0000000E+00  0.8163265E-01  0.2944023E-01 -0.5219243E-01  0.9944916E+00  0.4256424E+00  0.0000000E+00  0.0000000E+00
  0.7346939E+00  0.0000000E+00  0.8163265E-01  0.2943687E-01 -0.5219578E-01  0.9944911E+00  0.4256422E+00  0.0000000E+00  0.0000000E+00
  0.7755102E+00  0.0000000E+00  0.8163265E-01  0.2943403E-01 -0.5219862E-01  0.9944907E+00  0.4256420E+00  0.0000000E+00  0.0000000E+00
  0.8163265E+00  0.0000000E+00  0.8163265E-01  0.2943176E-01 -0.5220089E-01  0.9944904E+00  0.4256419E+00  0.0000000E+00  0.0000000E+00
  0.8571429E+00  0.0000000E+00  0.8163265E-01  0.2943012E-01 -0.5220254E-01  0.9944901E+00  0.4256418E+00  0.0000000E+00  0.0000000E+00
  0.8979592E+00  0.0000000E+00  0.8163265E-01  0.2942913E-01 -0.5220352E-01  0.9944900E+00  0.4256417E+00  0.0000000E+00  0.0000000E+00
  0.9387755E+00  0.0000000E+00  0.8163265E-01  0.2942883E-01 -0.5220382E-01  0.9944900E+00  0.4256417E+00  0.0000000E+00  0.0000000E+00
  0.9795918E+00  0.0000000E+00  0.8163265E-01  0.2942924E-01 -0.5220341E-01  0.9944900E+00  0.4256417E+00  0.0000000E+00  0.0000000E+00
  0.1020408E+01  0.0000000E+00  0.8163265E-01  0.2943035E-01 -0.5220230E-01  0.9944902E+00  0.4256418E+00  0.0000000E+00  0.0000000E+00
  0.1061224E+01  0.0000000E+00  0.8163265E-01  0.2943216E-01 -0.5220049E-01  0.9944904E+00  0.4256419E+00  0.0000000E+00  0.0000000E+00
  0.1102041E+01  0.0000000E+00  0.8163265E-01  0.2943465E-01 -0.5219801E-01  0.9944908E+00  0.4256421E+00  0.0000000E+00  0.0000000E+00
  0.1142857E+01  0.0000000E+00  0.8163265E-01  0.2943777E-01 -0.5219489E-01  0.9944912E+00  0.4256423E+00  0.0000000E+00  0.0000000E+00
  0.1183673E+01  0.0000000E+00  0.8163265E-01  0.2944148E-01 -0.5219118E-01  0.9944918E+00  0.4256425E+00  0.0000000E+00  0.0000000E+00
  0.1224490E+01  0.0000000E+00  0.8163265E-01  0.2944573E-01 -0.5218693E-01  0.9944924E+00  0.4256427E+00  0.0000000E+00  0.0000000E+00
  0.1265306E+01  0.0000000E+00  0.8163265E-01  0.2945045E-01 -0.5218220E-01  0.9944931E+00  0.4256430E+00  0.0000000E+00  0.0000000E+00
  0.1306122E+01  0.0000000E+00  0.8163265E-01  0.2945557E-01 -0.5217708E-01  0.9944938E+00  0.4256433E+00  0.0000000E+00  0.0000000E+00
  0.1346939E+01  0.0000000E+00  0.8163265E-01  0.2946102E-01 -0.5217163E-01  0.9944946E+00  0.4256437E+00  0.0000000E+00  0.0000000E+00
  0.1387755E+01  0.0000000E+00  0.8163265E-01  0.2946671E-01 -0.5216595E-01  0.9944954E+00  0.4256440E+00  0.0000000E+00  0.0000000E+00
  0.1428571E+01  0.0000000E+00  0.8163265E-01  0.2947255E-01 -0.5216011E-01  0.9944962E+00  0.4256444E+00  0.0000000E+00  0.0000000E+00
  0.1469388E+01  0.0000000E+00  0.8163265E-01  0.2947846E-01 -0.5215420E-01  0.9944971E+00  0.4256448E+00  0.0000000E+00  0.0000000E+00
  0.1510204E+01  0.0000000E+00  0.8163265E-01  0.2948435E-01 -0.5214831E-01  0.9944979E+00  0.4256451E+00  0.0000000E+00  0.0000000E+00
  0.1551020E+01  0.0000000E+00  0.8163265E-01  0.2949013E-01 -0.5214252E-01  0.9944988E+00  0.4256455E+00  0.0000000E+00  0.0000000E+00
  0.1591837E+01  0.0000000E+00  0.8163265E-01  0.2949573E-01 -0.5213693E-01  0.9944996E+00  0.4256458E+00  0.0000000E+00  0.0000000E+00
  0.1632653E+01  0.0000000E+00  0.8163265E-01  0.2950106E-01 -0.5213160E-01  0.9945003E+00  0.4256461E+00  0.0000000E+00  0.0000000E+00
  0.1673469E+01  0.0000000E+00  0.8163265E-01  0.2950604E-01 -0.5212661E-01  0.9945011E+00  0.4256465E+00  0.0000000E+00  0.0000000E+00
  0.1714286E+01  0.0000000E+00  0.8163265E-01  0.2951061E-01 -0.5212204E-01  0.9945017E+00  0.4256467E+00  0.0000000E+00  0.0000000E+00
  0.1755102E+01  0.0000000E+00  0.8163265E-01  0.2951470E-01 -0.5211795E-01  0.9945023E+00  0.4256470E+00  0.0000000E+00  0.0000000E+00
  0.1795918E+01  0.0000000E+00  0.8163265E-01  0.2951827E-01 -0.5211439E-01  0.9945028E+00  0.4256472E+00  0.0000000E+00  0.0000000E+00
  0.1836735E+01  0.0000000E+00  0.8163265E-01  0.2952125E-01 -0.5211140E-01  0.9945032E+00  0.4256474E+00  0.0000000E+00  0.0000000E+00
  0.1877551E+01  0.0000000E+00  0.8163265E-01  0.2952361E-01 -0.5210904E-01  0.9945036E+00  0.4256475E+00  0.0000000E+00  0.0000000E+00
  0.1918367E+01  0.0000000E+00  0.8163265E-01  0.2952532E-01 -0.5210733E-01  0.9945038E+00  0.4256476E+00  0.0000000E+00  0.0000000E+00
  0.1959184E+01  0.0000000E+00  0.8163265E-01  0.2952635E-01 -0.5210630E-01  0.9945040E+00  0.4256477E+00  0.0000000E+00  0.0000000E+00
  0.2000000E+01  0.0000000E+00  0.8163265E-01  0.2952670E-01 -0.5210595E-01  0.9945040E+00  0.4256477E+00  0.0000000E+00  0.0000000E+00
  0.0000000E+00  0.0000000E+00  0.1224490E+00  0.4853637E-01 -0.7391261E-01  0.9911708E+00  0.4242211E+00  0.0000000E+00  0.0000000E+00
  0.4081633E-01  0.0000000E+00  0.1224490E+00  0.4853587E-01 -0.7391311E-01  0.9911708E+00  0.4242211E+00  0.0000000E+00  0.0000000E+00
  0.8163265E-01  0.0000000E+00  0.1224490E+00  0.4853437E-01 -0.7391461E-01  0.9911705E+00  0.4242210E+00  0.0000000E+00  0.0000000E+00
  0.1224490E+00  0.0000000E+00  0.1224490E+00  0.4853191E-01 -0.7391707E-01  0.9911701E+00  0.4242208E+00  0.0000000E+00  0.0000000E+00
  0.1632653E+00  0.0000000E+00  0.1224490E+00  0.4852851E-01 -0.7392047E-01  0.9911696E+00  0.4242206E+00  0.0000000E+00  0.0000000E+00
  0.2040816E+00  0.0000000E+00  0.1224490E+00  0.4852424E-01 -0.7392474E-01  0.9911689E+00  0.4242203E+00  0.0000000E+00  0.0000000E+00
  0.2448980E+00  0.0000000E+00  0.1224490E+00  0.4851917E-01 -0.7392981E-01  0.9911681E+00  0.4242199E+00  0.0000000E+00  0.0000000E+00
  0.2857143E+00  0.0000000E+00  0.1224490E+00  0.4851339E-01 -0.7393559E-01  0.9911671E+00  0.4242195E+00  0.0000000E+00  0.0000000E+00
  0.3265306E+00  0.0000000E+00  0.1224490E+00  0.4850700E-01 -0.7394198E-01  0.9911661E+00  0.4242191E+00  0.0000000E+00  0.0000000E+00
  0.3673469E+00  0.0000000E+00  0.1224490E+00  0.4850011E-01 -0.7394886E-01  0.9911650E+00  0.4242186E+00  0.0000000E+00  0.0000000E+00
  0.4081633E+00  0.0000000E+00  0.1224490E+00  0.4849285E-01 -0.7395613E-01  0.9911638E+00  0.4242181E+00  0.0000000E+00  0.0000000E+00
  0.4489796E+00  0.0000000E+00  0.1224490E+00  0.4848534E-01 -0.7396364E-01  0.9911626E+00  0.4242176E+00  0.0000000E+00  0.0000000E+00
  0.4897959E+00  0.0000000E+00  0.1224490E+00  0.4847772E-01 -0.7397126E-01  0.9911614E+00  0.4242171E+00  0.0000000E+00  0.0000000E+00
  0.5306122E+00  0.0000000E+00  0.1224490E+00  0.4847013E-01 -0.7397885E-01  0.9911602E+00  0.4242165E+00  0.0000000E+00  0.0000000E+00
  0.5714286E+00  0.0000000E+00  0.1224490E+00  0.4846272E-01 -0.7398626E-01  0.9911590E+00  0.4242160E+00  0.0000000E+00  0.0000000E+00
  0.6122449E+00  0.0000000E+00  0.1224490E+00  0.4845562E-01 -0.7399336E-01  0.9911578E+00  0.4242155E+00  0.0000000E+00  0.0000000E+00
  0.6530612E+00  0.0000000E+00  0.1224490E+00  0.4844897E-01 -0.7400001E-01  0.9911567E+00  0.4242151E+00  0.0000000E+00  0.0000000E+00
  0.6938776E+00  0.0000000E+00  0.1224490E+00  0.4844291E-01 -0.7400607E-01  0.9911558E+00  0.4242147E+00  0.0000000E+00  0.0000000E+00
  0.7346939E+00  0.0000000E+00  0.1224490E+00  0.4843756E-01 -0.7401142E-01  0.9911549E+00  0.4242143E+00  0.0000000E+00  0.0000000E+00
  0.7755102E+00  0.0000000E+00  0.1224490E+00  0.4843301E-01 -0.7401597E-01  0.9911542E+00  0.4242140E+00  0.0000000E+00  0.0000000E+00
  0.8163265E+00  0.0000000E+00  0.1224490E+00  0.4842938E-01 -0.7401960E-01  0.9911536E+00  0.4242137E+00  0.0000000E+00  0.0000000E+00
  0.8571429E+00  0.0000000E+00  0.1224490E+00  0.4842675E-01 -0.7402223E-01  0.9911532E+00  0.4242136E+00  0.0000000E+00  0.0000000E+00
  0.8979592E+00  0.0000000E+00  0.1224490E+00  0.4842516E-01 -0.7402382E-01  0.9911529E+00  0.4242134E+00  0.0000000E+00  0.0000000E+00
  0.9387755E+00  0.0000000E+00  0.1224490E+00  0.4842468E-01 -0.7402430E-01  0.9911528E+00  0.4242134E+00  0.0000000E+00  0.0000000E+00
  0.9795918E+00  0.0000000E+00  0.1224490E+00  0.4842531E-01 -0.7402367E-01  0.9911529E+00  0.4242135E+00  0.0000000E+00  0.0000000E+00
  0.1020408E+01  0.0000000E+00  0.1224490E+00  0.4842708E-01 -0.7402190E-01  0.9911532E+00  0.4242136E+00  0.0000000E+00  0.0000000E+00
  0.1061224E+01  0.0000000E+00  0.1224490E+00  0.4842995E-01 -0.7401903E-01  0.9911537E+00  0.4242138E+00  0.0000000E+00  0.0000000E+00
  0.1102041E+01  0.0000000E+00  0.1224490E+00  0.4843389E-01 -0.7401509E-01  0.9911543E+00  0.4242140E+00  0.0000000E+00  0.0000000E+00
  0.1142857E+01  0.0000000E+00  0.1224490E+00  0.4843885E-01 -0.7401013E-01  0.9911551E+00  0.4242144E+00  0.0000000E+00  0.0000000E+00
  0.1183673E+01  0.0000000E+00  0.1224490E+00  0.4844476E-01 -0.7400422E-01  0.9911561E+00  0.4242148E+00  0.0000000E+00  0.0000000E+00
  0.1224490E+01  0.0000000E+00  0.1224490E+00  0.4845152E-01 -0.7399746E-01  0.9911572E+00  0.4242153E+00  0.0000000E+00  0.0000000E+00
  0.1265306E+01  0.0000000E+00  0.1224490E+00  0.4845903E-01 -0.7398995E-01  0.9911584E+00  0.4242158E+00  0.0000000E+00  0.0000000E+00
  0.1306122E+01  0.0000000E+00  0.1224490E+00  0.4846718E-01 -0.7398180E-01  0.9911597E+00  0.4242163E+00  0.0000000E+00  0.0000000E+00
  0.1346939E+01  0.0000000E+00  0.1224490E+00  0.4847584E-01 -0.7397314E-01  0.9911611E+00  0.4242169E+00  0.0000000E+00  0.0000000E+00
  0.1387755E+01  0.0000000E+00  0.1224490E+00  0.4848488E-01 -0.7396410E-01  0.9911625E+00  0.4242176E+00  0.0000000E+00  0.0000000E+00
  0.1428571E+01  0.0000000E+00  0.1224490E+00  0.4849417E-01 -0.7395481E-01  0.9911640E+00  0.4242182E+00  0.0000000E+00  0.0000000E+00
  0.1469388E+01  0.0000000E+00  0.1224490E+00  0.4850357E-01 -0.7394541E-01  0.9911655E+00  0.4242189E+00  0.0000000E+00  0.0000000E+00
  0.1510204E+01  0.0000000E+00  0.1224490E+00  0.4851293E-01 -0.7393605E-01  0.9911671E+00  0.4242195E+00  0.0000000E+00  0.0000000E+00
  0.1551020E+01  0.0000000E+00  0.1224490E+00  0.4852212E-01 -0.7392686E-01  0.9911685E+00  0.4242201E+00  0.0000000E+00  0.0000000E+00
  0.1591837E+01  0.0000000E+00  0.1224490E+00  0.4853102E-01 -0.7391796E-01  0.9911700E+00  0.4242207E+00  0.0000000E+00  0.0000000E+00
  0.1632653E+01  0.0000000E+00  0.1224490E+00  0.4853948E-01 -0.7390950E-01  0.9911713E+00  0.4242213E+00  0.0000000E+00  0.0000000E+00
  0.1673469E+01  0.0000000E+00  0.1224490E+00  0.4854740E-01 -0.7390158E-01  0.9911726E+00  0.4242219E+00  0.0000000E+00  0.0000000E+00
  0.1714286E+01  0.0000000E+00  0.1224490E+00  0.4855466E-01 -0.7389432E-01  0.9911738E+00  0.4242224E+00  0.0000000E+00  0.0000000E+00
  0.1755102E+01  0.0000000E+00  0.1224490E+00  0.4856116E-01 -0.7388782E-01  0.9911748E+00  0.4242228E+00  0.0000000E+00  0.0000000E+00
  0.1795918E+01  0.0000000E+00  0.1224490E+00  0.4856682E-01 -0.7388216E-01  0.9911757E+00  0.4242232E+00  0.0000000E+00  0.0000000E+00
  0.1836735E+01  0.0000000E+00  0.1224490E+00  0.4857155E-01 -0.7387743E-01  0.9911765E+00  0.4242235E+00  0.0000000E+00  0.0000000E+00
  0.1877551E+01  0.0000000E+00  0.1224490E+00  0.4857530E-01 -0.7387368E-01  0.9911771E+00  0.4242238E+00  0.0000000E+00  0.0000000E+00
  0.1918367E+01  0.0000000E+00  0.1224490E+00  0.4857802E-01 -0.7387096E-01  0.9911776E+00  0.4242240E+00  0.0000000E+00  0.0000000E+00
  0.1959184E+01  0.0000000E+00  0.1224490E+00  0.4857966E-01 -0.7386932E-01  0.9911778E+00  0.4242241E+00  0.0000000E+00  0.0000000E+00
  0.2000000E+01  0.0000000E+00  0.1224490E+00  0.4858021E-01 -0.7386877E-01  0.9911779E+00  0.4242241E+00  0.0000000E+00  0.0000000E+00
  0.0000000E+00  0.0000000E+00  0.1632653E+00  0.7001359E-01 -0.9325172E-01  0.9879317E+00  0.4228348E+00  0.0000000E+00  0.0000000E+00
  0.4081633E-01  0.0000000E+00  0.1632653E+00  0.7001288E-01 -0.9325242E-01  0.9879316E+00  0.4228347E+00  0.0000000E+00  0.0000000E+00
  0.8163265E-01  0.0000000E+00  0.1632653E+00  0.7001079E-01 -0.9325452E-01  0.9879312E+00  0.4228346E+00  0.0000000E+00  0.0000000E+00
  0.1224490E+00  0.0000000E+00  0.1632653E+00  0.7000733E-01 -0.9325798E-01  0.9879306E+00  0.4228343E+00  0.0000000E+00  0.0000000E+00
  0.1632653E+00  0.0000000E+00  0.1632653E+00  0.7000257E-01 -0.9326274E-01  0.9879298E+00  0.4228339E+00  0.0000000E+00  0.0000000E+00
  0.2040816E+00  0.0000000E+00  0.1632653E+00  0.6999659E-01 -0.9326872E-01  0.9879287E+00  0.4228335E+00  0.0000000E+00  0.0000000E+00
  0.2448980E+00  0.0000000E+00  0.1632653E+00  0.6998949E-01 -0.9327582E-01  0.9879275E+00  0.4228330E+00  0.0000000E+00  0.0000000E+00
  0.2857143E+00  0.0000000E+00  0.1632653E+00  0.6998139E-01 -0.9328392E-01  0.9879261E+00  0.4228324E+00  0.0000000E+00  0.0000000E+00
  0.3265306E+00  0.0000000E+00  0.1632653E+00  0.6997243E-01 -0.9329288E-01  0.9879246E+00  0.4228317E+00  0.0000000E+00  0.0000000E+00
  0.3673469E+00  0.0000000E+00  0.1632653E+00  0.6996277E-01 -0.9330254E-01  0.9879229E+00  0.4228310E+00  0.0000000E+00  0.0000000E+00
  0.4081633E+00  0.0000000E+00  0.1632653E+00  0.6995258E-01 -0.9331273E-01  0.9879211E+00  0.4228302E+00  0.0000000E+00  0.0000000E+00
  0.4489796E+00  0.0000000E+00  0.1632653E+00  0.6994204E-01 -0.9332326E-01  0.9879193E+00  0.4228295E+00  0.0000000E+00  0.0000000E+00
  0.4897959E+00  0.0000000E+00  0.1632653E+00  0.6993135E-01 -0.9333396E-01  0.9879174E+00  0.4228287E+00  0.0000000E+00  0.0000000E+00
  0.5306122E+00  0.0000000E+00  0.1632653E+00  0.6992070E-01 -0.9334461E-01  0.9879156E+00  0.4228279E+00  0.0000000E+00  0.0000000E+00
  0.5714286E+00  0.0000000E+00  0.1632653E+00  0.6991028E-01 -0.9335502E-01  0.9879138E+00  0.4228271E+00  0.0000000E+00  0.0000000E+00
  0.6122449E+00  0.0000000E+00  0.1632653E+00  0.6990031E-01 -0.9336499E-01  0.9879121E+00  0.4228264E+00  0.0000000E+00  0.0000000E+00
  0.6530612E+00  0.0000000E+00  0.1632653E+00  0.6989097E-01 -0.9337433E-01  0.9879104E+00  0.4228257E+00  0.0000000E+00  0.0000000E+00
  0.6938776E+00  0.0000000E+00  0.1632653E+00  0.6988245E-01 -0.9338285E-01  0.9879090E+00  0.4228250E+00  0.0000000E+00  0.0000000E+00
  0.7346939E+00  0.0000000E+00  0.1632653E+00  0.6987492E-01 -0.9339039E-01  0.9879077E+00  0.4228245E+00  0.0000000E+00  0.0000000E+00