title = "dataset feddes"
variables = "x", "y", "z", "vx", "vy", "vz"
zone t = "velocities, solution time =  3.600E+01 days        " i =   49, j =   49, k =    1,  f=point
  0.2040816E-01  0.0000000E+00  0.2040816E-01  0.3570703E-06  0.0000000E+00 -0.8555155E-01
  0.6122449E-01  0.0000000E+00  0.2040816E-01  0.1065486E-05  0.0000000E+00 -0.8554993E-01
  0.1020408E+00  0.0000000E+00  0.2040816E-01  0.1757976E-05  0.0000000E+00 -0.8554672E-01
  0.1428571E+00  0.0000000E+00  0.2040816E-01  0.2421489E-05  0.0000000E+00 -0.8554197E-01
  0.1836735E+00  0.0000000E+00  0.2040816E-01  0.3044300E-05  0.0000000E+00 -0.8553576E-01
  0.2244898E+00  0.0000000E+00  0.2040816E-01  0.3618162E-05  0.0000000E+00 -0.8552819E-01
  0.2653061E+00  0.0000000E+00  0.2040816E-01  0.4132269E-05  0.0000000E+00 -0.8551939E-01
  0.3061225E+00  0.0000000E+00  0.2040816E-01  0.4576251E-05  0.0000000E+00 -0.8550949E-01
  0.3469388E+00  0.0000000E+00  0.2040816E-01  0.4943228E-05  0.0000000E+00 -0.8549867E-01
  0.3877551E+00  0.0000000E+00  0.2040816E-01  0.5226586E-05  0.0000000E+00 -0.8548712E-01
  0.4285714E+00  0.0000000E+00  0.2040816E-01  0.5420094E-05  0.0000000E+00 -0.8547502E-01
  0.4693878E+00  0.0000000E+00  0.2040816E-01  0.5519095E-05  0.0000000E+00 -0.8546259E-01
  0.5102041E+00  0.0000000E+00  0.2040816E-01  0.5520781E-05  0.0000000E+00 -0.8545005E-01
  0.5510204E+00  0.0000000E+00  0.2040816E-01  0.5424014E-05  0.0000000E+00 -0.8543762E-01
  0.5918368E+00  0.0000000E+00  0.2040816E-01  0.5229245E-05  0.0000000E+00 -0.8542551E-01
  0.6326531E+00  0.0000000E+00  0.2040816E-01  0.4938605E-05  0.0000000E+00 -0.8541396E-01
  0.6734694E+00  0.0000000E+00  0.2040816E-01  0.4555999E-05  0.0000000E+00 -0.8540317E-01
  0.7142857E+00  0.0000000E+00  0.2040816E-01  0.4087109E-05  0.0000000E+00 -0.8539335E-01
  0.7551020E+00  0.0000000E+00  0.2040816E-01  0.3539325E-05  0.0000000E+00 -0.8538469E-01
  0.7959183E+00  0.0000000E+00  0.2040816E-01  0.2921620E-05  0.0000000E+00 -0.8537735E-01
  0.8367347E+00  0.0000000E+00  0.2040816E-01  0.2244401E-05  0.0000000E+00 -0.8537148E-01
  0.8775510E+00  0.0000000E+00  0.2040816E-01  0.1519329E-05  0.0000000E+00 -0.8536721E-01
  0.9183673E+00  0.0000000E+00  0.2040816E-01  0.7591004E-06  0.0000000E+00 -0.8536462E-01
  0.9591837E+00  0.0000000E+00  0.2040816E-01 -0.2255399E-07  0.0000000E+00 -0.8536378E-01
  0.1000000E+01  0.0000000E+00  0.2040816E-01 -0.8124012E-06  0.0000000E+00 -0.8536473E-01
  0.1040816E+01  0.0000000E+00  0.2040816E-01 -0.1595760E-05  0.0000000E+00 -0.8536746E-01
  0.1081633E+01  0.0000000E+00  0.2040816E-01 -0.2359701E-05  0.0000000E+00 -0.8537196E-01
  0.1122449E+01  0.0000000E+00  0.2040816E-01 -0.3089889E-05  0.0000000E+00 -0.8537815E-01
  0.1163265E+01  0.0000000E+00  0.2040816E-01 -0.3772539E-05  0.0000000E+00 -0.8538595E-01
  0.1204082E+01  0.0000000E+00  0.2040816E-01 -0.4398390E-05  0.0000000E+00 -0.8539523E-01
  0.1244898E+01  0.0000000E+00  0.2040816E-01 -0.4955814E-05  0.0000000E+00 -0.8540585E-01
  0.1285714E+01  0.0000000E+00  0.2040816E-01 -0.5433986E-05  0.0000000E+00 -0.8541766E-01
  0.1326531E+01  0.0000000E+00  0.2040816E-01 -0.5826778E-05  0.0000000E+00 -0.8543045E-01
  0.1367347E+01  0.0000000E+00  0.2040816E-01 -0.6128654E-05  0.0000000E+00 -0.8544404E-01
  0.1408163E+01  0.0000000E+00  0.2040816E-01 -0.6334773E-05  0.0000000E+00 -0.8545820E-01
  0.1448980E+01  0.0000000E+00  0.2040816E-01 -0.6442305E-05  0.0000000E+00 -0.8547271E-01
  0.1489796E+01  0.0000000E+00  0.2040816E-01 -0.6450533E-05  0.0000000E+00 -0.8548736E-01
  0.1530612E+01  0.0000000E+00  0.2040816E-01 -0.6360381E-05  0.0000000E+00 -0.8550192E-01
  0.1571429E+01  0.0000000E+00  0.2040816E-01 -0.6174175E-05  0.0000000E+00 -0.8551616E-01
  0.1612245E+01  0.0000000E+00  0.2040816E-01 -0.5895631E-05  0.0000000E+00 -0.8552987E-01
  0.1653061E+01  0.0000000E+00  0.2040816E-01 -0.5529796E-05  0.0000000E+00 -0.8554286E-01
  0.1693878E+01  0.0000000E+00  0.2040816E-01 -0.5082873E-05  0.0000000E+00 -0.8555492E-01
  0.1734694E+01  0.0000000E+00  0.2040816E-01 -0.4562071E-05  0.0000000E+00 -0.8556588E-01
  0.1775510E+01  0.0000000E+00  0.2040816E-01 -0.3975533E-05  0.0000000E+00 -0.8557558E-01
  0.1816326E+01  0.0000000E+00  0.2040816E-01 -0.3332192E-05  0.0000000E+00 -0.8558388E-01
  0.1857143E+01  0.0000000E+00  0.2040816E-01 -0.2641574E-05  0.0000000E+00 -0.8559067E-01
  0.1897959E+01  0.0000000E+00  0.2040816E-01 -0.1913646E-05  0.0000000E+00 -0.8559585E-01
  0.1938776E+01  0.0000000E+00  0.2040816E-01 -0.1158797E-05  0.0000000E+00 -0.8559934E-01
  0.1989796E+01  0.0000000E+00  0.2040816E-01 -0.3877406E-06  0.0000000E+00 -0.8560110E-01
  0.2040816E-01  0.0000000E+00  0.6122449E-01  0.9793266E-06  0.0000000E+00 -0.8555296E-01
  0.6122449E-01  0.0000000E+00  0.6122449E-01  0.2921695E-05  0.0000000E+00 -0.8555132E-01
  0.1020408E+00  0.0000000E+00  0.6122449E-01  0.4819203E-05  0.0000000E+00 -0.8554807E-01
  0.1428571E+00  0.0000000E+00  0.6122449E-01  0.6638542E-05  0.0000000E+00 -0.8554325E-01
  0.1836735E+00  0.0000000E+00  0.6122449E-01  0.8347080E-05  0.0000000E+00 -0.8553695E-01
  0.2244898E+00  0.0000000E+00  0.6122449E-01  0.9920267E-05  0.0000000E+00 -0.8552927E-01
  0.2653061E+00  0.0000000E+00  0.6122449E-01  0.1132983E-04  0.0000000E+00 -0.8552033E-01
  0.3061225E+00  0.0000000E+00  0.6122449E-01  0.1254814E-04  0.0000000E+00 -0.8551029E-01
  0.3469388E+00  0.0000000E+00  0.6122449E-01  0.1355541E-04  0.0000000E+00 -0.8549932E-01
  0.3877551E+00  0.0000000E+00  0.6122449E-01  0.1433322E-04  0.0000000E+00 -0.8548759E-01
  0.4285714E+00  0.0000000E+00  0.6122449E-01  0.1486472E-04  0.0000000E+00 -0.8547530E-01
  0.4693878E+00  0.0000000E+00  0.6122449E-01  0.1513726E-04  0.0000000E+00 -0.8546268E-01
  0.5102041E+00  0.0000000E+00  0.6122449E-01  0.1514305E-04  0.0000000E+00 -0.8544995E-01
  0.5510204E+00  0.0000000E+00  0.6122449E-01  0.1487884E-04  0.0000000E+00 -0.8543731E-01
  0.5918368E+00  0.0000000E+00  0.6122449E-01  0.1434578E-04  0.0000000E+00 -0.8542502E-01
  0.6326531E+00  0.0000000E+00  0.6122449E-01  0.1354968E-04  0.0000000E+00 -0.8541328E-01
  0.6734694E+00  0.0000000E+00  0.6122449E-01  0.1250122E-04  0.0000000E+00 -0.8540231E-01
  0.7142857E+00  0.0000000E+00  0.6122449E-01  0.1121597E-04  0.0000000E+00 -0.8539233E-01
  0.7551020E+00  0.0000000E+00  0.6122449E-01  0.9714154E-05  0.0000000E+00 -0.8538351E-01
  0.7959183E+00  0.0000000E+00  0.6122449E-01  0.8020372E-05  0.0000000E+00 -0.8537604E-01
  0.8367347E+00  0.0000000E+00  0.6122449E-01  0.6163177E-05  0.0000000E+00 -0.8537007E-01
  0.8775510E+00  0.0000000E+00  0.6122449E-01  0.4174607E-05  0.0000000E+00 -0.8536571E-01
  0.9183673E+00  0.0000000E+00  0.6122449E-01  0.2089563E-05  0.0000000E+00 -0.8536306E-01
  0.9591837E+00  0.0000000E+00  0.6122449E-01 -0.5439034E-07  0.0000000E+00 -0.8536220E-01
  0.1000000E+01  0.0000000E+00  0.6122449E-01 -0.2221251E-05  0.0000000E+00 -0.8536314E-01
  0.1040816E+01  0.0000000E+00  0.6122449E-01 -0.4370015E-05  0.0000000E+00 -0.8536591E-01
  0.1081633E+01  0.0000000E+00  0.6122449E-01 -0.6464459E-05  0.0000000E+00 -0.8537045E-01
  0.1122449E+01  0.0000000E+00  0.6122449E-01 -0.8467342E-05  0.0000000E+00 -0.8537672E-01
  0.1163265E+01  0.0000000E+00  0.6122449E-01 -0.1034040E-04  0.0000000E+00 -0.8538463E-01
  0.1204082E+01  0.0000000E+00  0.6122449E-01 -0.1205596E-04  0.0000000E+00 -0.8539404E-01
  0.1244898E+01  0.0000000E+00  0.6122449E-01 -0.1358368E-04  0.0000000E+00 -0.8540481E-01
  0.1285714E+01  0.0000000E+00  0.6122449E-01 -0.1489483E-04  0.0000000E+00 -0.8541678E-01
  0.1326531E+01  0.0000000E+00  0.6122449E-01 -0.1597159E-04  0.0000000E+00 -0.8542975E-01
  0.1367347E+01  0.0000000E+00  0.6122449E-01 -0.1679853E-04  0.0000000E+00 -0.8544352E-01
  0.1408163E+01  0.0000000E+00  0.6122449E-01 -0.1736274E-04  0.0000000E+00 -0.8545787E-01
  0.1448980E+01  0.0000000E+00  0.6122449E-01 -0.1765668E-04  0.0000000E+00 -0.8547259E-01
  0.1489796E+01  0.0000000E+00  0.6122449E-01 -0.1767843E-04  0.0000000E+00 -0.8548743E-01
  0.1530612E+01  0.0000000E+00  0.6122449E-01 -0.1743056E-04  0.0000000E+00 -0.8550218E-01
  0.1571429E+01  0.0000000E+00  0.6122449E-01 -0.1691946E-04  0.0000000E+00 -0.8551662E-01
  0.1612245E+01  0.0000000E+00  0.6122449E-01 -0.1615533E-04  0.0000000E+00 -0.8553051E-01
  0.1653061E+01  0.0000000E+00  0.6122449E-01 -0.1515206E-04  0.0000000E+00 -0.8554366E-01
  0.1693878E+01  0.0000000E+00  0.6122449E-01 -0.1392680E-04  0.0000000E+00 -0.8555588E-01
  0.1734694E+01  0.0000000E+00  0.6122449E-01 -0.1249936E-04  0.0000000E+00 -0.8556698E-01
  0.1775510E+01  0.0000000E+00  0.6122449E-01 -0.1089198E-04  0.0000000E+00 -0.8557680E-01
  0.1816326E+01  0.0000000E+00  0.6122449E-01 -0.9129048E-05  0.0000000E+00 -0.8558521E-01
  0.1857143E+01  0.0000000E+00  0.6122449E-01 -0.7236717E-05  0.0000000E+00 -0.8559208E-01
  0.1897959E+01  0.0000000E+00  0.6122449E-01 -0.5242386E-05  0.0000000E+00 -0.8559732E-01
  0.1938776E+01  0.0000000E+00  0.6122449E-01 -0.3174477E-05  0.0000000E+00 -0.8560086E-01
  0.1989796E+01  0.0000000E+00  0.6122449E-01 -0.1062508E-05  0.0000000E+00 -0.8560264E-01
  0.2040816E-01  0.0000000E+00  0.1020408E+00  0.1471282E-05  0.0000000E+00 -0.8555542E-01
  0.6122449E-01  0.0000000E+00  0.1020408E+00  0.4390087E-05  0.0000000E+00 -0.8555374E-01
  0.1020408E+00  0.0000000E+00  0.1020408E+00  0.7239863E-05  0.0000000E+00 -0.8555041E-01
  0.1428571E+00  0.0000000E+00  0.1020408E+00  0.9973397E-05  0.0000000E+00 -0.8554547E-01
  0.1836735E+00  0.0000000E+00  0.1020408E+00  0.1254203E-04  0.0000000E+00 -0.8553901E-01
  0.2244898E+00  0.0000000E+00  0.1020408E+00  0.1490620E-04  0.0000000E+00 -0.8553114E-01
  0.2653061E+00  0.0000000E+00  0.1020408E+00  0.1702500E-04  0.0000000E+00 -0.8552198E-01
  0.3061225E+00  0.0000000E+00  0.1020408E+00  0.1885815E-04  0.0000000E+00 -0.8551168E-01
  0.3469388E+00  0.0000000E+00  0.1020408E+00  0.2037461E-04  0.0000000E+00 -0.8550043E-01
  0.3877551E+00  0.0000000E+00  0.1020408E+00  0.2154619E-04  0.0000000E+00 -0.8548839E-01
  0.4285714E+00  0.0000000E+00  0.1020408E+00  0.2234789E-04  0.0000000E+00 -0.8547579E-01
  0.4693878E+00  0.0000000E+00  0.1020408E+00  0.2276081E-04  0.0000000E+00 -0.8546284E-01
  0.5102041E+00  0.0000000E+00  0.1020408E+00  0.2277301E-04  0.0000000E+00 -0.8544976E-01
  0.5510204E+00  0.0000000E+00  0.1020408E+00  0.2237931E-04  0.0000000E+00 -0.8543678E-01
  0.5918368E+00  0.0000000E+00  0.1020408E+00  0.2158122E-04  0.0000000E+00 -0.8542415E-01
  0.6326531E+00  0.0000000E+00  0.1020408E+00  0.2038736E-04  0.0000000E+00 -0.8541208E-01
  0.6734694E+00  0.0000000E+00  0.1020408E+00  0.1881368E-04  0.0000000E+00 -0.8540080E-01
  0.7142857E+00  0.0000000E+00  0.1020408E+00  0.1688348E-04  0.0000000E+00 -0.8539053E-01
  0.7551020E+00  0.0000000E+00  0.1020408E+00  0.1462711E-04  0.0000000E+00 -0.8538146E-01
  0.7959183E+00  0.0000000E+00  0.1020408E+00  0.1208150E-04  0.0000000E+00 -0.8537376E-01
  0.8367347E+00  0.0000000E+00  0.1020408E+00  0.9289641E-05  0.0000000E+00 -0.8536760E-01
  0.8775510E+00  0.0000000E+00  0.1020408E+00  0.6299834E-05  0.0000000E+00 -0.8536309E-01
  0.9183673E+00  0.0000000E+00  0.1020408E+00  0.3164475E-05  0.0000000E+00 -0.8536035E-01
  0.9591837E+00  0.0000000E+00  0.1020408E+00 -0.5978124E-07  0.0000000E+00 -0.8535943E-01
  0.1000000E+01  0.0000000E+00  0.1020408E+00 -0.3318508E-05  0.0000000E+00 -0.8536038E-01
  0.1040816E+01  0.0000000E+00  0.1020408E+00 -0.6550227E-05  0.0000000E+00 -0.8536318E-01
  0.1081633E+01  0.0000000E+00  0.1020408E+00 -0.9698917E-05  0.0000000E+00 -0.8536783E-01
  0.1122449E+01  0.0000000E+00  0.1020408E+00 -0.1271032E-04  0.0000000E+00 -0.8537424E-01
  0.1163265E+01  0.0000000E+00  0.1020408E+00 -0.1552731E-04  0.0000000E+00 -0.8538232E-01
  0.1204082E+01  0.0000000E+00  0.1020408E+00 -0.1810506E-04  0.0000000E+00 -0.8539195E-01
  0.1244898E+01  0.0000000E+00  0.1020408E+00 -0.2039971E-04  0.0000000E+00 -0.8540298E-01
  0.1285714E+01  0.0000000E+00  0.1020408E+00 -0.2236958E-04  0.0000000E+00 -0.8541523E-01
  0.1326531E+01  0.0000000E+00  0.1020408E+00 -0.2398642E-04  0.0000000E+00 -0.8542851E-01
  0.1367347E+01  0.0000000E+00  0.1020408E+00 -0.2522680E-04  0.0000000E+00 -0.8544261E-01
  0.1408163E+01  0.0000000E+00  0.1020408E+00 -0.2607201E-04  0.0000000E+00 -0.8545730E-01
  0.1448980E+01  0.0000000E+00  0.1020408E+00 -0.2651110E-04  0.0000000E+00 -0.8547236E-01
  0.1489796E+01  0.0000000E+00  0.1020408E+00 -0.2654125E-04  0.0000000E+00 -0.8548755E-01
  0.1530612E+01  0.0000000E+00  0.1020408E+00 -0.2616652E-04  0.0000000E+00 -0.8550264E-01
  0.1571429E+01  0.0000000E+00  0.1020408E+00 -0.2539674E-04  0.0000000E+00 -0.8551740E-01
  0.1612245E+01  0.0000000E+00  0.1020408E+00 -0.2424733E-04  0.0000000E+00 -0.8553161E-01
  0.1653061E+01  0.0000000E+00  0.1020408E+00 -0.2273923E-04  0.0000000E+00 -0.8554506E-01
  0.1693878E+01  0.0000000E+00  0.1020408E+00 -0.2089838E-04  0.0000000E+00 -0.8555754E-01
  0.1734694E+01  0.0000000E+00  0.1020408E+00 -0.1875482E-04  0.0000000E+00 -0.8556888E-01
  0.1775510E+01  0.0000000E+00  0.1020408E+00 -0.1634189E-04  0.0000000E+00 -0.8557892E-01
  0.1816326E+01  0.0000000E+00  0.1020408E+00 -0.1369598E-04  0.0000000E+00 -0.8558751E-01
  0.1857143E+01  0.0000000E+00  0.1020408E+00 -0.1085627E-04  0.0000000E+00 -0.8559453E-01
  0.1897959E+01  0.0000000E+00  0.1020408E+00 -0.7864037E-05  0.0000000E+00 -0.8559988E-01
  0.1938776E+01  0.0000000E+00  0.1020408E+00 -0.4761842E-05  0.0000000E+00 -0.8560349E-01
  0.1989796E+01  0.0000000E+00  0.1020408E+00 -0.1594242E-05  0.0000000E+00 -0.8560531E-01
  0.2040816E-01  0.0000000E+00  0.1428571E+00  0.1902439E-05  0.0000000E+00 -0.8555877E-01
  0.6122449E-01  0.0000000E+00  0.1428571E+00  0.5678006E-05  0.0000000E+00 -0.8555703E-01
  0.1020408E+00  0.0000000E+00  0.1428571E+00  0.9363841E-05  0.0000000E+00 -0.8555359E-01
  0.1428571E+00  0.0000000E+00  0.1428571E+00  0.1289957E-04  0.0000000E+00 -0.8554849E-01
  0.1836735E+00  0.0000000E+00  0.1428571E+00  0.1622371E-04  0.0000000E+00 -0.8554182E-01
  0.2244898E+00  0.0000000E+00  0.1428571E+00  0.1928369E-04  0.0000000E+00 -0.8553369E-01
  0.2653061E+00  0.0000000E+00  0.1428571E+00  0.2202714E-04  0.0000000E+00 -0.8552422E-01
  0.3061225E+00  0.0000000E+00  0.1428571E+00  0.2440282E-04  0.0000000E+00 -0.8551358E-01
  0.3469388E+00  0.0000000E+00  0.1428571E+00  0.2636969E-04  0.0000000E+00 -0.8550194E-01
  0.3877551E+00  0.0000000E+00  0.1428571E+00  0.2789085E-04  0.0000000E+00 -0.8548949E-01
  0.4285714E+00  0.0000000E+00  0.1428571E+00  0.2893405E-04  0.0000000E+00 -0.8547645E-01
  0.4693878E+00  0.0000000E+00  0.1428571E+00  0.2947471E-04  0.0000000E+00 -0.8546304E-01
  0.5102041E+00  0.0000000E+00  0.1428571E+00  0.2949704E-04  0.0000000E+00 -0.8544949E-01
  0.5510204E+00  0.0000000E+00  0.1428571E+00  0.2899387E-04  0.0000000E+00 -0.8543605E-01
  0.5918368E+00  0.0000000E+00  0.1428571E+00  0.2796684E-04  0.0000000E+00 -0.8542295E-01
  0.6326531E+00  0.0000000E+00  0.1428571E+00  0.2642681E-04  0.0000000E+00 -0.8541044E-01
  0.6734694E+00  0.0000000E+00  0.1428571E+00  0.2439421E-04  0.0000000E+00 -0.8539873E-01
  0.7142857E+00  0.0000000E+00  0.1428571E+00  0.2189903E-04  0.0000000E+00 -0.8538807E-01
  0.7551020E+00  0.0000000E+00  0.1428571E+00  0.1898041E-04  0.0000000E+00 -0.8537864E-01
  0.7959183E+00  0.0000000E+00  0.1428571E+00  0.1568611E-04  0.0000000E+00 -0.8537063E-01
  0.8367347E+00  0.0000000E+00  0.1428571E+00  0.1207188E-04  0.0000000E+00 -0.8536421E-01
  0.8775510E+00  0.0000000E+00  0.1428571E+00  0.8200476E-05  0.0000000E+00 -0.8535951E-01
  0.9183673E+00  0.0000000E+00  0.1428571E+00  0.4139812E-05  0.0000000E+00 -0.8535663E-01
  0.9591837E+00  0.0000000E+00  0.1428571E+00 -0.3727453E-07  0.0000000E+00 -0.8535564E-01
  0.1000000E+01  0.0000000E+00  0.1428571E+00 -0.4257534E-05  0.0000000E+00 -0.8535658E-01
  0.1040816E+01  0.0000000E+00  0.1428571E+00 -0.8443885E-05  0.0000000E+00 -0.8535945E-01
  0.1081633E+01  0.0000000E+00  0.1428571E+00 -0.1252201E-04  0.0000000E+00 -0.8536422E-01
  0.1122449E+01  0.0000000E+00  0.1428571E+00 -0.1642108E-04  0.0000000E+00 -0.8537082E-01
  0.1163265E+01  0.0000000E+00  0.1428571E+00 -0.2006846E-04  0.0000000E+00 -0.8537916E-01
  0.1204082E+01  0.0000000E+00  0.1428571E+00 -0.2340427E-04  0.0000000E+00 -0.8538909E-01
  0.1244898E+01  0.0000000E+00  0.1428571E+00 -0.2637223E-04  0.0000000E+00 -0.8540048E-01
  0.1285714E+01  0.0000000E+00  0.1428571E+00 -0.2891947E-04  0.0000000E+00 -0.8541312E-01
  0.1326531E+01  0.0000000E+00  0.1428571E+00 -0.3100857E-04  0.0000000E+00 -0.8542682E-01
  0.1367347E+01  0.0000000E+00  0.1428571E+00 -0.3260921E-04  0.0000000E+00 -0.8544137E-01
  0.1408163E+01  0.0000000E+00  0.1428571E+00 -0.3369796E-04  0.0000000E+00 -0.8545652E-01
  0.1448980E+01  0.0000000E+00  0.1428571E+00 -0.3426118E-04  0.0000000E+00 -0.8547205E-01
  0.1489796E+01  0.0000000E+00  0.1428571E+00 -0.3429537E-04  0.0000000E+00 -0.8548771E-01
  0.1530612E+01  0.0000000E+00  0.1428571E+00 -0.3380606E-04  0.0000000E+00 -0.8550327E-01
  0.1571429E+01  0.0000000E+00  0.1428571E+00 -0.3280656E-04  0.0000000E+00 -0.8551847E-01
  0.1612245E+01  0.0000000E+00  0.1428571E+00 -0.3131721E-04  0.0000000E+00 -0.8553311E-01
  0.1653061E+01  0.0000000E+00  0.1428571E+00 -0.2936517E-04  0.0000000E+00 -0.8554695E-01
  0.1693878E+01  0.0000000E+00  0.1428571E+00 -0.2698411E-04  0.0000000E+00 -0.8555980E-01
  0.1734694E+01  0.0000000E+00  0.1428571E+00 -0.2421318E-04  0.0000000E+00 -0.8557147E-01
  0.1775510E+01  0.0000000E+00  0.1428571E+00 -0.2109572E-04  0.0000000E+00 -0.8558180E-01
  0.1816326E+01  0.0000000E+00  0.1428571E+00 -0.1767858E-04  0.0000000E+00 -0.8559064E-01
  0.1857143E+01  0.0000000E+00  0.1428571E+00 -0.1401202E-04  0.0000000E+00 -0.8559786E-01
  0.1897959E+01  0.0000000E+00  0.1428571E+00 -0.1014926E-04  0.0000000E+00 -0.8560336E-01
  0.1938776E+01  0.0000000E+00  0.1428571E+00 -0.6145254E-05  0.0000000E+00 -0.8560707E-01
  0.1989796E+01  0.0000000E+00  0.1428571E+00 -0.2057559E-05  0.0000000E+00 -0.8560894E-01
  0.2040816E-01  0.0000000E+00  0.1836735E+00  0.2297213E-05  0.0000000E+00 -0.8556291E-01
  0.6122449E-01  0.0000000E+00  0.1836735E+00  0.6856481E-05  0.0000000E+00 -0.8556111E-01
  0.1020408E+00  0.0000000E+00  0.1836735E+00  0.1130780E-04  0.0000000E+00 -0.8555753E-01
  0.1428571E+00  0.0000000E+00  0.1836735E+00  0.1557844E-04  0.0000000E+00 -0.8555223E-01
  0.1836735E+00  0.0000000E+00  0.1836735E+00  0.1959537E-04  0.0000000E+00 -0.8554530E-01
  0.2244898E+00  0.0000000E+00  0.1836735E+00  0.2329450E-04  0.0000000E+00 -0.8553684E-01
  0.2653061E+00  0.0000000E+00  0.1836735E+00  0.2661280E-04  0.0000000E+00 -0.8552700E-01
  0.3061225E+00  0.0000000E+00  0.1836735E+00  0.2948893E-04  0.0000000E+00 -0.8551593E-01
  0.3469388E+00  0.0000000E+00  0.1836735E+00  0.3187270E-04  0.0000000E+00 -0.8550381E-01
  0.3877551E+00  0.0000000E+00  0.1836735E+00  0.3371909E-04  0.0000000E+00 -0.8549085E-01
  0.4285714E+00  0.0000000E+00  0.1836735E+00  0.3498898E-04  0.0000000E+00 -0.8547727E-01
  0.4693878E+00  0.0000000E+00  0.1836735E+00  0.3565237E-04  0.0000000E+00 -0.8546329E-01
  0.5102041E+00  0.0000000E+00  0.1836735E+00  0.3568961E-04  0.0000000E+00 -0.8544917E-01
  0.5510204E+00  0.0000000E+00  0.1836735E+00  0.3509145E-04  0.0000000E+00 -0.8543514E-01
  0.5918368E+00  0.0000000E+00  0.1836735E+00  0.3385933E-04  0.0000000E+00 -0.8542147E-01
  0.6326531E+00  0.0000000E+00  0.1836735E+00  0.3200593E-04  0.0000000E+00 -0.8540839E-01
  0.6734694E+00  0.0000000E+00  0.1836735E+00  0.2955557E-04  0.0000000E+00 -0.8539616E-01
  0.7142857E+00  0.0000000E+00  0.1836735E+00  0.2654418E-04  0.0000000E+00 -0.8538500E-01
  0.7551020E+00  0.0000000E+00  0.1836735E+00  0.2301890E-04  0.0000000E+00 -0.8537513E-01
  0.7959183E+00  0.0000000E+00  0.1836735E+00  0.1903746E-04  0.0000000E+00 -0.8536674E-01
  0.8367347E+00  0.0000000E+00  0.1836735E+00  0.1466733E-04  0.0000000E+00 -0.8535999E-01
  0.8775510E+00  0.0000000E+00  0.1836735E+00  0.9984521E-05  0.0000000E+00 -0.8535504E-01
  0.9183673E+00  0.0000000E+00  0.1836735E+00  0.5071798E-05  0.0000000E+00 -0.8535199E-01
  0.9591837E+00  0.0000000E+00  0.1836735E+00  0.1675996E-07  0.0000000E+00 -0.8535091E-01
  0.1000000E+01  0.0000000E+00  0.1836735E+00 -0.5089597E-05  0.0000000E+00 -0.8535185E-01
  0.1040816E+01  0.0000000E+00  0.1836735E+00 -0.1015538E-04  0.0000000E+00 -0.8535480E-01
  0.1081633E+01  0.0000000E+00  0.1836735E+00 -0.1508957E-04  0.0000000E+00 -0.8535973E-01
  0.1122449E+01  0.0000000E+00  0.1836735E+00 -0.1980556E-04  0.0000000E+00 -0.8536657E-01
  0.1163265E+01  0.0000000E+00  0.1836735E+00 -0.2421617E-04  0.0000000E+00 -0.8537522E-01
  0.1204082E+01  0.0000000E+00  0.1836735E+00 -0.2824791E-04  0.0000000E+00 -0.8538554E-01
  0.1244898E+01  0.0000000E+00  0.1836735E+00 -0.3183283E-04  0.0000000E+00 -0.8539736E-01
  0.1285714E+01  0.0000000E+00  0.1836735E+00 -0.3490787E-04  0.0000000E+00 -0.8541049E-01
  0.1326531E+01  0.0000000E+00  0.1836735E+00 -0.3742732E-04  0.0000000E+00 -0.8542472E-01
  0.1367347E+01  0.0000000E+00  0.1836735E+00 -0.3935465E-04  0.0000000E+00 -0.8543982E-01
  0.1408163E+01  0.0000000E+00  0.1836735E+00 -0.4066244E-04  0.0000000E+00 -0.8545555E-01
  0.1448980E+01  0.0000000E+00  0.1836735E+00 -0.4133506E-04  0.0000000E+00 -0.8547166E-01
  0.1489796E+01  0.0000000E+00  0.1836735E+00 -0.4136870E-04  0.0000000E+00 -0.8548791E-01
  0.1530612E+01  0.0000000E+00  0.1836735E+00 -0.4077036E-04  0.0000000E+00 -0.8550403E-01
  0.1571429E+01  0.0000000E+00  0.1836735E+00 -0.3955683E-04  0.0000000E+00 -0.8551980E-01
  0.1612245E+01  0.0000000E+00  0.1836735E+00 -0.3775352E-04  0.0000000E+00 -0.8553496E-01
  0.1653061E+01  0.0000000E+00  0.1836735E+00 -0.3539368E-04  0.0000000E+00 -0.8554929E-01
  0.1693878E+01  0.0000000E+00  0.1836735E+00 -0.3251796E-04  0.0000000E+00 -0.8556260E-01
  0.1734694E+01  0.0000000E+00  0.1836735E+00 -0.2917375E-04  0.0000000E+00 -0.8557468E-01
  0.1775510E+01  0.0000000E+00  0.1836735E+00 -0.2541372E-04  0.0000000E+00 -0.8558536E-01
  0.1816326E+01  0.0000000E+00  0.1836735E+00 -0.2129457E-04  0.0000000E+00 -0.8559450E-01
  0.1857143E+01  0.0000000E+00  0.1836735E+00 -0.1687652E-04  0.0000000E+00 -0.8560197E-01
  0.1897959E+01  0.0000000E+00  0.1836735E+00 -0.1222310E-04  0.0000000E+00 -0.8560766E-01
  0.1938776E+01  0.0000000E+00  0.1836735E+00 -0.7400478E-05  0.0000000E+00 -0.8561150E-01
  0.1989796E+01  0.0000000E+00  0.1836735E+00 -0.2477705E-05  0.0000000E+00 -0.8561343E-01
  0.2040816E-01  0.0000000E+00  0.2244898E+00  0.2669444E-05  0.0000000E+00 -0.8556779E-01
  0.6122449E-01  0.0000000E+00  0.2244898E+00  0.7967564E-05  0.0000000E+00 -0.8556591E-01
  0.1020408E+00  0.0000000E+00  0.2244898E+00  0.1314093E-04  0.0000000E+00 -0.8556217E-01
  0.1428571E+00  0.0000000E+00  0.2244898E+00  0.1810551E-04  0.0000000E+00 -0.8555664E-01
  0.1836735E+00  0.0000000E+00  0.2244898E+00  0.2277744E-04  0.0000000E+00 -0.8554940E-01
  0.2244898E+00  0.0000000E+00  0.2244898E+00  0.2708197E-04  0.0000000E+00 -0.8554056E-01
  0.2653061E+00  0.0000000E+00  0.2244898E+00  0.3094604E-04  0.0000000E+00 -0.8553027E-01
  0.3061225E+00  0.0000000E+00  0.2244898E+00  0.3429880E-04  0.0000000E+00 -0.8551870E-01
  0.3469388E+00  0.0000000E+00  0.2244898E+00  0.3708127E-04  0.0000000E+00 -0.8550602E-01
  0.3877551E+00  0.0000000E+00  0.2244898E+00  0.3924064E-04  0.0000000E+00 -0.8549246E-01
  0.4285714E+00  0.0000000E+00  0.2244898E+00  0.4073105E-04  0.0000000E+00 -0.8547823E-01
  0.4693878E+00  0.0000000E+00  0.2244898E+00  0.4151707E-04  0.0000000E+00 -0.8546359E-01
  0.5102041E+00  0.0000000E+00  0.2244898E+00  0.4157507E-04  0.0000000E+00 -0.8544878E-01
  0.5510204E+00  0.0000000E+00  0.2244898E+00  0.4089346E-04  0.0000000E+00 -0.8543407E-01
  0.5918368E+00  0.0000000E+00  0.2244898E+00  0.3947315E-04  0.0000000E+00 -0.8541971E-01
  0.6326531E+00  0.0000000E+00  0.2244898E+00  0.3732824E-04  0.0000000E+00 -0.8540597E-01
  0.6734694E+00  0.0000000E+00  0.2244898E+00  0.3448646E-04  0.0000000E+00 -0.8539311E-01
  0.7142857E+00  0.0000000E+00  0.2244898E+00  0.3098915E-04  0.0000000E+00 -0.8538137E-01
  0.7551020E+00  0.0000000E+00  0.2244898E+00  0.2689088E-04  0.0000000E+00 -0.8537097E-01
  0.7959183E+00  0.0000000E+00  0.2244898E+00  0.2225883E-04  0.0000000E+00 -0.8536212E-01
  0.8367347E+00  0.0000000E+00  0.2244898E+00  0.1717178E-04  0.0000000E+00 -0.8535499E-01
  0.8775510E+00  0.0000000E+00  0.2244898E+00  0.1171809E-04  0.0000000E+00 -0.8534975E-01
  0.9183673E+00  0.0000000E+00  0.2244898E+00  0.5995042E-05  0.0000000E+00 -0.8534649E-01
  0.9591837E+00  0.0000000E+00  0.2244898E+00  0.1052824E-06  0.0000000E+00 -0.8534531E-01
  0.1000000E+01  0.0000000E+00  0.2244898E+00 -0.5844753E-05  0.0000000E+00 -0.8534624E-01
  0.1040816E+01  0.0000000E+00  0.2244898E+00 -0.1174712E-04  0.0000000E+00 -0.8534929E-01
  0.1081633E+01  0.0000000E+00  0.2244898E+00 -0.1749521E-04  0.0000000E+00 -0.8535441E-01
  0.1122449E+01  0.0000000E+00  0.2244898E+00 -0.2298726E-04  0.0000000E+00 -0.8536154E-01
  0.1163265E+01  0.0000000E+00  0.2244898E+00 -0.2812194E-04  0.0000000E+00 -0.8537056E-01
  0.1204082E+01  0.0000000E+00  0.2244898E+00 -0.3281267E-04  0.0000000E+00 -0.8538132E-01
  0.1244898E+01  0.0000000E+00  0.2244898E+00 -0.3698036E-04  0.0000000E+00 -0.8539366E-01
  0.1285714E+01  0.0000000E+00  0.2244898E+00 -0.4055242E-04  0.0000000E+00 -0.8540737E-01
  0.1326531E+01  0.0000000E+00  0.2244898E+00 -0.4347556E-04  0.0000000E+00 -0.8542222E-01
  0.1367347E+01  0.0000000E+00  0.2244898E+00 -0.4570749E-04  0.0000000E+00 -0.8543798E-01
  0.1408163E+01  0.0000000E+00  0.2244898E+00 -0.4721719E-04  0.0000000E+00 -0.8545440E-01
  0.1448980E+01  0.0000000E+00  0.2244898E+00 -0.4798768E-04  0.0000000E+00 -0.8547120E-01
  0.1489796E+01  0.0000000E+00  0.2244898E+00 -0.4801550E-04  0.0000000E+00 -0.8548814E-01
  0.1530612E+01  0.0000000E+00  0.2244898E+00 -0.4730937E-04  0.0000000E+00 -0.8550494E-01
  0.1571429E+01  0.0000000E+00  0.2244898E+00 -0.4588943E-04  0.0000000E+00 -0.8552136E-01
  0.1612245E+01  0.0000000E+00  0.2244898E+00 -0.4378628E-04  0.0000000E+00 -0.8553714E-01
  0.1653061E+01  0.0000000E+00  0.2244898E+00 -0.4103954E-04  0.0000000E+00 -0.8555206E-01
  0.1693878E+01  0.0000000E+00  0.2244898E+00 -0.3769678E-04  0.0000000E+00 -0.8556589E-01
  0.1734694E+01  0.0000000E+00  0.2244898E+00 -0.3381294E-04  0.0000000E+00 -0.8557845E-01
  0.1775510E+01  0.0000000E+00  0.2244898E+00 -0.2944929E-04  0.0000000E+00 -0.8558956E-01
  0.1816326E+01  0.0000000E+00  0.2244898E+00 -0.2467202E-04  0.0000000E+00 -0.8559905E-01
  0.1857143E+01  0.0000000E+00  0.2244898E+00 -0.1955095E-04  0.0000000E+00 -0.8560680E-01
  0.1897959E+01  0.0000000E+00  0.2244898E+00 -0.1415888E-04  0.0000000E+00 -0.8561271E-01
  0.1938776E+01  0.0000000E+00  0.2244898E+00 -0.8572024E-05  0.0000000E+00 -0.8561670E-01
  0.1989796E+01  0.0000000E+00  0.2244898E+00 -0.2869723E-05  0.0000000E+00 -0.8561870E-01
  0.2040816E-01  0.0000000E+00  0.2653061E+00  0.3028592E-05  0.0000000E+00 -0.8557338E-01
  0.6122449E-01  0.0000000E+00  0.2653061E+00  0.9039822E-05  0.0000000E+00 -0.8557140E-01
  0.1020408E+00  0.0000000E+00  0.2653061E+00  0.1491045E-04  0.0000000E+00 -0.8556749E-01
  0.1428571E+00  0.0000000E+00  0.2653061E+00  0.2054590E-04  0.0000000E+00 -0.8556169E-01
  0.1836735E+00  0.0000000E+00  0.2653061E+00  0.2585208E-04  0.0000000E+00 -0.8555409E-01
  0.2244898E+00  0.0000000E+00  0.2653061E+00  0.3074412E-04  0.0000000E+00 -0.8554483E-01
  0.2653061E+00  0.0000000E+00  0.2653061E+00  0.3513930E-04  0.0000000E+00 -0.8553403E-01
  0.3061225E+00  0.0000000E+00  0.2653061E+00  0.3895756E-04  0.0000000E+00 -0.8552188E-01
  0.3469388E+00  0.0000000E+00  0.2653061E+00  0.4213135E-04  0.0000000E+00 -0.8550856E-01
  0.3877551E+00  0.0000000E+00  0.2653061E+00  0.4460008E-04  0.0000000E+00 -0.8549431E-01
  0.4285714E+00  0.0000000E+00  0.2653061E+00  0.4631114E-04  0.0000000E+00 -0.8547935E-01
  0.4693878E+00  0.0000000E+00  0.2653061E+00  0.4722345E-04  0.0000000E+00 -0.8546394E-01
  0.5102041E+00  0.0000000E+00  0.2653061E+00  0.4730915E-04  0.0000000E+00 -0.8544835E-01
  0.5510204E+00  0.0000000E+00  0.2653061E+00  0.4655398E-04  0.0000000E+00 -0.8543284E-01
  0.5918368E+00  0.0000000E+00  0.2653061E+00  0.4495794E-04  0.0000000E+00 -0.8541770E-01
  0.6326531E+00  0.0000000E+00  0.2653061E+00  0.4253610E-04  0.0000000E+00 -0.8540320E-01
  0.6734694E+00  0.0000000E+00  0.2653061E+00  0.3931918E-04  0.0000000E+00 -0.8538961E-01
  0.7142857E+00  0.0000000E+00  0.2653061E+00  0.3535356E-04  0.0000000E+00 -0.8537719E-01
  0.7551020E+00  0.0000000E+00  0.2653061E+00  0.3070083E-04  0.0000000E+00 -0.8536619E-01
  0.7959183E+00  0.0000000E+00  0.2653061E+00  0.2543734E-04  0.0000000E+00 -0.8535680E-01
  0.8367347E+00  0.0000000E+00  0.2653061E+00  0.1965294E-04  0.0000000E+00 -0.8534924E-01
  0.8775510E+00  0.0000000E+00  0.2653061E+00  0.1344825E-04  0.0000000E+00 -0.8534365E-01
  0.9183673E+00  0.0000000E+00  0.2653061E+00  0.6934777E-05  0.0000000E+00 -0.8534016E-01
  0.9591837E+00  0.0000000E+00  0.2653061E+00  0.2302322E-06  0.0000000E+00 -0.8533886E-01
  0.1000000E+01  0.0000000E+00  0.2653061E+00 -0.6543571E-05  0.0000000E+00 -0.8533978E-01
  0.1040816E+01  0.0000000E+00  0.2653061E+00 -0.1326260E-04  0.0000000E+00 -0.8534294E-01
  0.1081633E+01  0.0000000E+00  0.2653061E+00 -0.1980457E-04  0.0000000E+00 -0.8534828E-01
  0.1122449E+01  0.0000000E+00  0.2653061E+00 -0.2605273E-04  0.0000000E+00 -0.8535574E-01
  0.1163265E+01  0.0000000E+00  0.2653061E+00 -0.3189175E-04  0.0000000E+00 -0.8536519E-01
  0.1204082E+01  0.0000000E+00  0.2653061E+00 -0.3722216E-04  0.0000000E+00 -0.8537648E-01
  0.1244898E+01  0.0000000E+00  0.2653061E+00 -0.4195380E-04  0.0000000E+00 -0.8538942E-01
  0.1285714E+01  0.0000000E+00  0.2653061E+00 -0.4600493E-04  0.0000000E+00 -0.8540379E-01
  0.1326531E+01  0.0000000E+00  0.2653061E+00 -0.4931527E-04  0.0000000E+00 -0.8541937E-01