title = "dataset feddes"
variables = "x", "y", "z", "vx", "vy", "vz"
zone t = "velocities, solution time =  5.900E+01 days        " i =   49, j =   49, k =    1,  f=point
  0.2040816E-01  0.0000000E+00  0.2040816E-01  0.6763323E-06  0.0000000E+00 -0.8492764E-01
  0.6122449E-01  0.0000000E+00  0.2040816E-01  0.2016987E-05  0.0000000E+00 -0.8492458E-01
  0.1020408E+00  0.0000000E+00  0.2040816E-01  0.3322069E-05  0.0000000E+00 -0.8491852E-01
  0.1428571E+00  0.0000000E+00  0.2040816E-01  0.4568521E-05  0.0000000E+00 -0.8490956E-01
  0.1836735E+00  0.0000000E+00  0.2040816E-01  0.5733447E-05  0.0000000E+00 -0.8489787E-01
  0.2244898E+00  0.0000000E+00  0.2040816E-01  0.6795037E-05  0.0000000E+00 -0.8488364E-01
  0.2653061E+00  0.0000000E+00  0.2040816E-01  0.7732426E-05  0.0000000E+00 -0.8486715E-01
  0.3061225E+00  0.0000000E+00  0.2040816E-01  0.8525831E-05  0.0000000E+00 -0.8484870E-01
  0.3469388E+00  0.0000000E+00  0.2040816E-01  0.9157241E-05  0.0000000E+00 -0.8482863E-01
  0.3877551E+00  0.0000000E+00  0.2040816E-01  0.9610814E-05  0.0000000E+00 -0.8480732E-01
  0.4285714E+00  0.0000000E+00  0.2040816E-01  0.9873209E-05  0.0000000E+00 -0.8478521E-01
  0.4693878E+00  0.0000000E+00  0.2040816E-01  0.9934066E-05  0.0000000E+00 -0.8476273E-01
  0.5102041E+00  0.0000000E+00  0.2040816E-01  0.9786628E-05  0.0000000E+00 -0.8474035E-01
  0.5510204E+00  0.0000000E+00  0.2040816E-01  0.9428507E-05  0.0000000E+00 -0.8471854E-01
  0.5918368E+00  0.0000000E+00  0.2040816E-01  0.8862631E-05  0.0000000E+00 -0.8469778E-01
  0.6326531E+00  0.0000000E+00  0.2040816E-01  0.8098264E-05  0.0000000E+00 -0.8467853E-01
  0.6734694E+00  0.0000000E+00  0.2040816E-01  0.7151433E-05  0.0000000E+00 -0.8466123E-01
  0.7142857E+00  0.0000000E+00  0.2040816E-01  0.6043289E-05  0.0000000E+00 -0.8464625E-01
  0.7551020E+00  0.0000000E+00  0.2040816E-01  0.4795883E-05  0.0000000E+00 -0.8463395E-01
  0.7959183E+00  0.0000000E+00  0.2040816E-01  0.3431676E-05  0.0000000E+00 -0.8462462E-01
  0.8367347E+00  0.0000000E+00  0.2040816E-01  0.1975695E-05  0.0000000E+00 -0.8461848E-01
  0.8775510E+00  0.0000000E+00  0.2040816E-01  0.4576525E-06  0.0000000E+00 -0.8461572E-01
  0.9183673E+00  0.0000000E+00  0.2040816E-01 -0.1088717E-05  0.0000000E+00 -0.8461644E-01
  0.9591837E+00  0.0000000E+00  0.2040816E-01 -0.2631293E-05  0.0000000E+00 -0.8462066E-01
  0.1000000E+01  0.0000000E+00  0.2040816E-01 -0.4141408E-05  0.0000000E+00 -0.8462834E-01
  0.1040816E+01  0.0000000E+00  0.2040816E-01 -0.5593280E-05  0.0000000E+00 -0.8463939E-01
  0.1081633E+01  0.0000000E+00  0.2040816E-01 -0.6963630E-05  0.0000000E+00 -0.8465364E-01
  0.1122449E+01  0.0000000E+00  0.2040816E-01 -0.8231986E-05  0.0000000E+00 -0.8467088E-01
  0.1163265E+01  0.0000000E+00  0.2040816E-01 -0.9380025E-05  0.0000000E+00 -0.8469087E-01
  0.1204082E+01  0.0000000E+00  0.2040816E-01 -0.1039137E-04  0.0000000E+00 -0.8471331E-01
  0.1244898E+01  0.0000000E+00  0.2040816E-01 -0.1125243E-04  0.0000000E+00 -0.8473787E-01
  0.1285714E+01  0.0000000E+00  0.2040816E-01 -0.1195248E-04  0.0000000E+00 -0.8476421E-01
  0.1326531E+01  0.0000000E+00  0.2040816E-01 -0.1248358E-04  0.0000000E+00 -0.8479194E-01
  0.1367347E+01  0.0000000E+00  0.2040816E-01 -0.1284058E-04  0.0000000E+00 -0.8482068E-01
  0.1408163E+01  0.0000000E+00  0.2040816E-01 -0.1302102E-04  0.0000000E+00 -0.8485004E-01
  0.1448980E+01  0.0000000E+00  0.2040816E-01 -0.1302510E-04  0.0000000E+00 -0.8487961E-01
  0.1489796E+01  0.0000000E+00  0.2040816E-01 -0.1285560E-04  0.0000000E+00 -0.8490898E-01
  0.1530612E+01  0.0000000E+00  0.2040816E-01 -0.1251753E-04  0.0000000E+00 -0.8493779E-01
  0.1571429E+01  0.0000000E+00  0.2040816E-01 -0.1201795E-04  0.0000000E+00 -0.8496564E-01
  0.1612245E+01  0.0000000E+00  0.2040816E-01 -0.1136574E-04  0.0000000E+00 -0.8499219E-01
  0.1653061E+01  0.0000000E+00  0.2040816E-01 -0.1057139E-04  0.0000000E+00 -0.8501710E-01
  0.1693878E+01  0.0000000E+00  0.2040816E-01 -0.9646791E-05  0.0000000E+00 -0.8504006E-01
  0.1734694E+01  0.0000000E+00  0.2040816E-01 -0.8604951E-05  0.0000000E+00 -0.8506078E-01
  0.1775510E+01  0.0000000E+00  0.2040816E-01 -0.7459852E-05  0.0000000E+00 -0.8507902E-01
  0.1816326E+01  0.0000000E+00  0.2040816E-01 -0.6226220E-05  0.0000000E+00 -0.8509456E-01
  0.1857143E+01  0.0000000E+00  0.2040816E-01 -0.4919385E-05  0.0000000E+00 -0.8510722E-01
  0.1897959E+01  0.0000000E+00  0.2040816E-01 -0.3555192E-05  0.0000000E+00 -0.8511684E-01
  0.1938776E+01  0.0000000E+00  0.2040816E-01 -0.2149848E-05  0.0000000E+00 -0.8512332E-01
  0.1989796E+01  0.0000000E+00  0.2040816E-01 -0.7198020E-06  0.0000000E+00 -0.8512658E-01
  0.2040816E-01  0.0000000E+00  0.6122449E-01  0.1854960E-05  0.0000000E+00 -0.8493033E-01
  0.6122449E-01  0.0000000E+00  0.6122449E-01  0.5532093E-05  0.0000000E+00 -0.8492723E-01
  0.1020408E+00  0.0000000E+00  0.6122449E-01  0.9111910E-05  0.0000000E+00 -0.8492107E-01
  0.1428571E+00  0.0000000E+00  0.6122449E-01  0.1253136E-04  0.0000000E+00 -0.8491197E-01
  0.1836735E+00  0.0000000E+00  0.6122449E-01  0.1572797E-04  0.0000000E+00 -0.8490009E-01
  0.2244898E+00  0.0000000E+00  0.6122449E-01  0.1864183E-04  0.0000000E+00 -0.8488564E-01
  0.2653061E+00  0.0000000E+00  0.6122449E-01  0.2121570E-04  0.0000000E+00 -0.8486888E-01
  0.3061225E+00  0.0000000E+00  0.6122449E-01  0.2339542E-04  0.0000000E+00 -0.8485012E-01
  0.3469388E+00  0.0000000E+00  0.6122449E-01  0.2513157E-04  0.0000000E+00 -0.8482971E-01
  0.3877551E+00  0.0000000E+00  0.6122449E-01  0.2638051E-04  0.0000000E+00 -0.8480804E-01
  0.4285714E+00  0.0000000E+00  0.6122449E-01  0.2710539E-04  0.0000000E+00 -0.8478553E-01
  0.4693878E+00  0.0000000E+00  0.6122449E-01  0.2727741E-04  0.0000000E+00 -0.8476264E-01
  0.5102041E+00  0.0000000E+00  0.6122449E-01  0.2687747E-04  0.0000000E+00 -0.8473984E-01
  0.5510204E+00  0.0000000E+00  0.6122449E-01  0.2589824E-04  0.0000000E+00 -0.8471761E-01
  0.5918368E+00  0.0000000E+00  0.6122449E-01  0.2434678E-04  0.0000000E+00 -0.8469645E-01
  0.6326531E+00  0.0000000E+00  0.6122449E-01  0.2224795E-04  0.0000000E+00 -0.8467682E-01
  0.6734694E+00  0.0000000E+00  0.6122449E-01  0.1964695E-04  0.0000000E+00 -0.8465917E-01
  0.7142857E+00  0.0000000E+00  0.6122449E-01  0.1660520E-04  0.0000000E+00 -0.8464390E-01
  0.7551020E+00  0.0000000E+00  0.6122449E-01  0.1318328E-04  0.0000000E+00 -0.8463134E-01
  0.7959183E+00  0.0000000E+00  0.6122449E-01  0.9440531E-05  0.0000000E+00 -0.8462180E-01
  0.8367347E+00  0.0000000E+00  0.6122449E-01  0.5443311E-05  0.0000000E+00 -0.8461551E-01
  0.8775510E+00  0.0000000E+00  0.6122449E-01  0.1273469E-05  0.0000000E+00 -0.8461266E-01
  0.9183673E+00  0.0000000E+00  0.6122449E-01 -0.2972584E-05  0.0000000E+00 -0.8461335E-01
  0.9591837E+00  0.0000000E+00  0.6122449E-01 -0.7205276E-05  0.0000000E+00 -0.8461761E-01
  0.1000000E+01  0.0000000E+00  0.6122449E-01 -0.1134635E-04  0.0000000E+00 -0.8462538E-01
  0.1040816E+01  0.0000000E+00  0.6122449E-01 -0.1532627E-04  0.0000000E+00 -0.8463657E-01
  0.1081633E+01  0.0000000E+00  0.6122449E-01 -0.1908208E-04  0.0000000E+00 -0.8465100E-01
  0.1122449E+01  0.0000000E+00  0.6122449E-01 -0.2255767E-04  0.0000000E+00 -0.8466847E-01
  0.1163265E+01  0.0000000E+00  0.6122449E-01 -0.2570285E-04  0.0000000E+00 -0.8468871E-01
  0.1204082E+01  0.0000000E+00  0.6122449E-01 -0.2847296E-04  0.0000000E+00 -0.8471143E-01
  0.1244898E+01  0.0000000E+00  0.6122449E-01 -0.3083084E-04  0.0000000E+00 -0.8473631E-01
  0.1285714E+01  0.0000000E+00  0.6122449E-01 -0.3274710E-04  0.0000000E+00 -0.8476298E-01
  0.1326531E+01  0.0000000E+00  0.6122449E-01 -0.3420003E-04  0.0000000E+00 -0.8479105E-01
  0.1367347E+01  0.0000000E+00  0.6122449E-01 -0.3517566E-04  0.0000000E+00 -0.8482015E-01
  0.1408163E+01  0.0000000E+00  0.6122449E-01 -0.3566746E-04  0.0000000E+00 -0.8484986E-01
  0.1448980E+01  0.0000000E+00  0.6122449E-01 -0.3567613E-04  0.0000000E+00 -0.8487977E-01
  0.1489796E+01  0.0000000E+00  0.6122449E-01 -0.3520931E-04  0.0000000E+00 -0.8490949E-01
  0.1530612E+01  0.0000000E+00  0.6122449E-01 -0.3428096E-04  0.0000000E+00 -0.8493863E-01
  0.1571429E+01  0.0000000E+00  0.6122449E-01 -0.3291053E-04  0.0000000E+00 -0.8496680E-01
  0.1612245E+01  0.0000000E+00  0.6122449E-01 -0.3112244E-04  0.0000000E+00 -0.8499364E-01
  0.1653061E+01  0.0000000E+00  0.6122449E-01 -0.2894553E-04  0.0000000E+00 -0.8501882E-01
  0.1693878E+01  0.0000000E+00  0.6122449E-01 -0.2641237E-04  0.0000000E+00 -0.8504202E-01
  0.1734694E+01  0.0000000E+00  0.6122449E-01 -0.2355864E-04  0.0000000E+00 -0.8506297E-01
  0.1775510E+01  0.0000000E+00  0.6122449E-01 -0.2042265E-04  0.0000000E+00 -0.8508140E-01
  0.1816326E+01  0.0000000E+00  0.6122449E-01 -0.1704471E-04  0.0000000E+00 -0.8509710E-01
  0.1857143E+01  0.0000000E+00  0.6122449E-01 -0.1346674E-04  0.0000000E+00 -0.8510989E-01
  0.1897959E+01  0.0000000E+00  0.6122449E-01 -0.9732023E-05  0.0000000E+00 -0.8511961E-01
  0.1938776E+01  0.0000000E+00  0.6122449E-01 -0.5884876E-05  0.0000000E+00 -0.8512616E-01
  0.1989796E+01  0.0000000E+00  0.6122449E-01 -0.1970042E-05  0.0000000E+00 -0.8512945E-01
  0.2040816E-01  0.0000000E+00  0.1020408E+00  0.2788975E-05  0.0000000E+00 -0.8493502E-01
  0.6122449E-01  0.0000000E+00  0.1020408E+00  0.8318047E-05  0.0000000E+00 -0.8493184E-01
  0.1020408E+00  0.0000000E+00  0.1020408E+00  0.1370171E-04  0.0000000E+00 -0.8492552E-01
  0.1428571E+00  0.0000000E+00  0.1020408E+00  0.1884561E-04  0.0000000E+00 -0.8491618E-01
  0.1836735E+00  0.0000000E+00  0.1020408E+00  0.2365645E-04  0.0000000E+00 -0.8490398E-01
  0.2244898E+00  0.0000000E+00  0.1020408E+00  0.2804428E-04  0.0000000E+00 -0.8488913E-01
  0.2653061E+00  0.0000000E+00  0.1020408E+00  0.3192306E-04  0.0000000E+00 -0.8487190E-01
  0.3061225E+00  0.0000000E+00  0.1020408E+00  0.3521155E-04  0.0000000E+00 -0.8485261E-01
  0.3469388E+00  0.0000000E+00  0.1020408E+00  0.3783526E-04  0.0000000E+00 -0.8483161E-01
  0.3877551E+00  0.0000000E+00  0.1020408E+00  0.3972813E-04  0.0000000E+00 -0.8480929E-01
  0.4285714E+00  0.0000000E+00  0.1020408E+00  0.4083398E-04  0.0000000E+00 -0.8478610E-01
  0.4693878E+00  0.0000000E+00  0.1020408E+00  0.4110844E-04  0.0000000E+00 -0.8476250E-01
  0.5102041E+00  0.0000000E+00  0.1020408E+00  0.4052115E-04  0.0000000E+00 -0.8473896E-01
  0.5510204E+00  0.0000000E+00  0.1020408E+00  0.3905856E-04  0.0000000E+00 -0.8471600E-01
  0.5918368E+00  0.0000000E+00  0.1020408E+00  0.3672795E-04  0.0000000E+00 -0.8469413E-01
  0.6326531E+00  0.0000000E+00  0.1020408E+00  0.3356393E-04  0.0000000E+00 -0.8467383E-01
  0.6734694E+00  0.0000000E+00  0.1020408E+00  0.2963763E-04  0.0000000E+00 -0.8465558E-01
  0.7142857E+00  0.0000000E+00  0.1020408E+00  0.2505664E-04  0.0000000E+00 -0.8463979E-01
  0.7551020E+00  0.0000000E+00  0.1020408E+00  0.1991151E-04  0.0000000E+00 -0.8462679E-01
  0.7959183E+00  0.0000000E+00  0.1020408E+00  0.1428257E-04  0.0000000E+00 -0.8461688E-01
  0.8367347E+00  0.0000000E+00  0.1020408E+00  0.8260431E-05  0.0000000E+00 -0.8461031E-01
  0.8775510E+00  0.0000000E+00  0.1020408E+00  0.1967964E-05  0.0000000E+00 -0.8460730E-01
  0.9183673E+00  0.0000000E+00  0.1020408E+00 -0.4431847E-05  0.0000000E+00 -0.8460796E-01
  0.9591837E+00  0.0000000E+00  0.1020408E+00 -0.1080095E-04  0.0000000E+00 -0.8461228E-01
  0.1000000E+01  0.0000000E+00  0.1020408E+00 -0.1702468E-04  0.0000000E+00 -0.8462022E-01
  0.1040816E+01  0.0000000E+00  0.1020408E+00 -0.2300208E-04  0.0000000E+00 -0.8463165E-01
  0.1081633E+01  0.0000000E+00  0.1020408E+00 -0.2864077E-04  0.0000000E+00 -0.8464641E-01
  0.1122449E+01  0.0000000E+00  0.1020408E+00 -0.3385699E-04  0.0000000E+00 -0.8466426E-01
  0.1163265E+01  0.0000000E+00  0.1020408E+00 -0.3857543E-04  0.0000000E+00 -0.8468495E-01
  0.1204082E+01  0.0000000E+00  0.1020408E+00 -0.4272939E-04  0.0000000E+00 -0.8470818E-01
  0.1244898E+01  0.0000000E+00  0.1020408E+00 -0.4626331E-04  0.0000000E+00 -0.8473360E-01
  0.1285714E+01  0.0000000E+00  0.1020408E+00 -0.4913319E-04  0.0000000E+00 -0.8476084E-01
  0.1326531E+01  0.0000000E+00  0.1020408E+00 -0.5130658E-04  0.0000000E+00 -0.8478951E-01
  0.1367347E+01  0.0000000E+00  0.1020408E+00 -0.5276288E-04  0.0000000E+00 -0.8481922E-01
  0.1408163E+01  0.0000000E+00  0.1020408E+00 -0.5349292E-04  0.0000000E+00 -0.8484954E-01
  0.1448980E+01  0.0000000E+00  0.1020408E+00 -0.5349822E-04  0.0000000E+00 -0.8488007E-01
  0.1489796E+01  0.0000000E+00  0.1020408E+00 -0.5279056E-04  0.0000000E+00 -0.8491038E-01
  0.1530612E+01  0.0000000E+00  0.1020408E+00 -0.5139124E-04  0.0000000E+00 -0.8494009E-01
  0.1571429E+01  0.0000000E+00  0.1020408E+00 -0.4932992E-04  0.0000000E+00 -0.8496880E-01
  0.1612245E+01  0.0000000E+00  0.1020408E+00 -0.4664354E-04  0.0000000E+00 -0.8499616E-01
  0.1653061E+01  0.0000000E+00  0.1020408E+00 -0.4337558E-04  0.0000000E+00 -0.8502181E-01
  0.1693878E+01  0.0000000E+00  0.1020408E+00 -0.3957503E-04  0.0000000E+00 -0.8504544E-01
  0.1734694E+01  0.0000000E+00  0.1020408E+00 -0.3529546E-04  0.0000000E+00 -0.8506677E-01
  0.1775510E+01  0.0000000E+00  0.1020408E+00 -0.3059428E-04  0.0000000E+00 -0.8508554E-01
  0.1816326E+01  0.0000000E+00  0.1020408E+00 -0.2553194E-04  0.0000000E+00 -0.8510152E-01
  0.1857143E+01  0.0000000E+00  0.1020408E+00 -0.2017108E-04  0.0000000E+00 -0.8511453E-01
  0.1897959E+01  0.0000000E+00  0.1020408E+00 -0.1457631E-04  0.0000000E+00 -0.8512442E-01
  0.1938776E+01  0.0000000E+00  0.1020408E+00 -0.8813790E-05  0.0000000E+00 -0.8513108E-01
  0.1989796E+01  0.0000000E+00  0.1020408E+00 -0.2950045E-05  0.0000000E+00 -0.8513443E-01
  0.2040816E-01  0.0000000E+00  0.1428571E+00  0.3611011E-05  0.0000000E+00 -0.8494143E-01
  0.6122449E-01  0.0000000E+00  0.1428571E+00  0.1077039E-04  0.0000000E+00 -0.8493813E-01
  0.1020408E+00  0.0000000E+00  0.1428571E+00  0.1774331E-04  0.0000000E+00 -0.8493160E-01
  0.1428571E+00  0.0000000E+00  0.1428571E+00  0.2440836E-04  0.0000000E+00 -0.8492192E-01
  0.1836735E+00  0.0000000E+00  0.1428571E+00  0.3064570E-04  0.0000000E+00 -0.8490929E-01
  0.2244898E+00  0.0000000E+00  0.1428571E+00  0.3633935E-04  0.0000000E+00 -0.8489391E-01
  0.2653061E+00  0.0000000E+00  0.1428571E+00  0.4137818E-04  0.0000000E+00 -0.8487605E-01
  0.3061225E+00  0.0000000E+00  0.1428571E+00  0.4565710E-04  0.0000000E+00 -0.8485603E-01
  0.3469388E+00  0.0000000E+00  0.1428571E+00  0.4907939E-04  0.0000000E+00 -0.8483422E-01
  0.3877551E+00  0.0000000E+00  0.1428571E+00  0.5155868E-04  0.0000000E+00 -0.8481103E-01
  0.4285714E+00  0.0000000E+00  0.1428571E+00  0.5302100E-04  0.0000000E+00 -0.8478691E-01
  0.4693878E+00  0.0000000E+00  0.1428571E+00  0.5340707E-04  0.0000000E+00 -0.8476232E-01
  0.5102041E+00  0.0000000E+00  0.1428571E+00  0.5267480E-04  0.0000000E+00 -0.8473778E-01
  0.5510204E+00  0.0000000E+00  0.1428571E+00  0.5080206E-04  0.0000000E+00 -0.8471381E-01
  0.5918368E+00  0.0000000E+00  0.1428571E+00  0.4779063E-04  0.0000000E+00 -0.8469095E-01
  0.6326531E+00  0.0000000E+00  0.1428571E+00  0.4367525E-04  0.0000000E+00 -0.8466972E-01
  0.6734694E+00  0.0000000E+00  0.1428571E+00  0.3854865E-04  0.0000000E+00 -0.8465066E-01
  0.7142857E+00  0.0000000E+00  0.1428571E+00  0.3260350E-04  0.0000000E+00 -0.8463417E-01
  0.7551020E+00  0.0000000E+00  0.1428571E+00  0.2594929E-04  0.0000000E+00 -0.8462056E-01
  0.7959183E+00  0.0000000E+00  0.1428571E+00  0.1866622E-04  0.0000000E+00 -0.8461014E-01
  0.8367347E+00  0.0000000E+00  0.1428571E+00  0.1084637E-04  0.0000000E+00 -0.8460319E-01
  0.8775510E+00  0.0000000E+00  0.1428571E+00  0.2639510E-05  0.0000000E+00 -0.8459996E-01
  0.9183673E+00  0.0000000E+00  0.1428571E+00 -0.5679161E-05  0.0000000E+00 -0.8460057E-01
  0.9591837E+00  0.0000000E+00  0.1428571E+00 -0.1393227E-04  0.0000000E+00 -0.8460501E-01
  0.1000000E+01  0.0000000E+00  0.1428571E+00 -0.2198341E-04  0.0000000E+00 -0.8461318E-01
  0.1040816E+01  0.0000000E+00  0.1428571E+00 -0.2970937E-04  0.0000000E+00 -0.8462495E-01
  0.1081633E+01  0.0000000E+00  0.1428571E+00 -0.3699408E-04  0.0000000E+00 -0.8464014E-01
  0.1122449E+01  0.0000000E+00  0.1428571E+00 -0.4373020E-04  0.0000000E+00 -0.8465853E-01
  0.1163265E+01  0.0000000E+00  0.1428571E+00 -0.4982051E-04  0.0000000E+00 -0.8467984E-01
  0.1204082E+01  0.0000000E+00  0.1428571E+00 -0.5517884E-04  0.0000000E+00 -0.8470375E-01
  0.1244898E+01  0.0000000E+00  0.1428571E+00 -0.5973361E-04  0.0000000E+00 -0.8472991E-01
  0.1285714E+01  0.0000000E+00  0.1428571E+00 -0.6342836E-04  0.0000000E+00 -0.8475793E-01
  0.1326531E+01  0.0000000E+00  0.1428571E+00 -0.6622168E-04  0.0000000E+00 -0.8478743E-01
  0.1367347E+01  0.0000000E+00  0.1428571E+00 -0.6808756E-04  0.0000000E+00 -0.8481796E-01
  0.1408163E+01  0.0000000E+00  0.1428571E+00 -0.6901506E-04  0.0000000E+00 -0.8484912E-01
  0.1448980E+01  0.0000000E+00  0.1428571E+00 -0.6900722E-04  0.0000000E+00 -0.8488048E-01
  0.1489796E+01  0.0000000E+00  0.1428571E+00 -0.6807999E-04  0.0000000E+00 -0.8491160E-01
  0.1530612E+01  0.0000000E+00  0.1428571E+00 -0.6626149E-04  0.0000000E+00 -0.8494209E-01
  0.1571429E+01  0.0000000E+00  0.1428571E+00 -0.6359074E-04  0.0000000E+00 -0.8497155E-01
  0.1612245E+01  0.0000000E+00  0.1428571E+00 -0.6011606E-04  0.0000000E+00 -0.8499960E-01
  0.1653061E+01  0.0000000E+00  0.1428571E+00 -0.5589397E-04  0.0000000E+00 -0.8502589E-01
  0.1693878E+01  0.0000000E+00  0.1428571E+00 -0.5098800E-04  0.0000000E+00 -0.8505011E-01
  0.1734694E+01  0.0000000E+00  0.1428571E+00 -0.4546739E-04  0.0000000E+00 -0.8507195E-01
  0.1775510E+01  0.0000000E+00  0.1428571E+00 -0.3940607E-04  0.0000000E+00 -0.8509117E-01
  0.1816326E+01  0.0000000E+00  0.1428571E+00 -0.3288186E-04  0.0000000E+00 -0.8510753E-01
  0.1857143E+01  0.0000000E+00  0.1428571E+00 -0.2597534E-04  0.0000000E+00 -0.8512085E-01
  0.1897959E+01  0.0000000E+00  0.1428571E+00 -0.1876936E-04  0.0000000E+00 -0.8513097E-01
  0.1938776E+01  0.0000000E+00  0.1428571E+00 -0.1134854E-04  0.0000000E+00 -0.8513779E-01
  0.1989796E+01  0.0000000E+00  0.1428571E+00 -0.3798040E-05  0.0000000E+00 -0.8514121E-01
  0.2040816E-01  0.0000000E+00  0.1836735E+00  0.4366302E-05  0.0000000E+00 -0.8494940E-01
  0.6122449E-01  0.0000000E+00  0.1836735E+00  0.1302406E-04  0.0000000E+00 -0.8494596E-01
  0.1020408E+00  0.0000000E+00  0.1836735E+00  0.2145911E-04  0.0000000E+00 -0.8493915E-01
  0.1428571E+00  0.0000000E+00  0.1836735E+00  0.2952597E-04  0.0000000E+00 -0.8492907E-01
  0.1836735E+00  0.0000000E+00  0.1836735E+00  0.3708112E-04  0.0000000E+00 -0.8491590E-01
  0.2244898E+00  0.0000000E+00  0.1836735E+00  0.4398519E-04  0.0000000E+00 -0.8489986E-01
  0.2653061E+00  0.0000000E+00  0.1836735E+00  0.5010431E-04  0.0000000E+00 -0.8488122E-01
  0.3061225E+00  0.0000000E+00  0.1836735E+00  0.5531153E-04  0.0000000E+00 -0.8486031E-01
  0.3469388E+00  0.0000000E+00  0.1836735E+00  0.5948941E-04  0.0000000E+00 -0.8483750E-01
  0.3877551E+00  0.0000000E+00  0.1836735E+00  0.6253240E-04  0.0000000E+00 -0.8481323E-01
  0.4285714E+00  0.0000000E+00  0.1836735E+00  0.6434931E-04  0.0000000E+00 -0.8478794E-01
  0.4693878E+00  0.0000000E+00  0.1836735E+00  0.6486604E-04  0.0000000E+00 -0.8476214E-01
  0.5102041E+00  0.0000000E+00  0.1836735E+00  0.6402827E-04  0.0000000E+00 -0.8473635E-01
  0.5510204E+00  0.0000000E+00  0.1836735E+00  0.6180336E-04  0.0000000E+00 -0.8471111E-01
  0.5918368E+00  0.0000000E+00  0.1836735E+00  0.5818075E-04  0.0000000E+00 -0.8468699E-01
  0.6326531E+00  0.0000000E+00  0.1836735E+00  0.5317369E-04  0.0000000E+00 -0.8466458E-01
  0.6734694E+00  0.0000000E+00  0.1836735E+00  0.4685623E-04  0.0000000E+00 -0.8464450E-01
  0.7142857E+00  0.0000000E+00  0.1836735E+00  0.3965251E-04  0.0000000E+00 -0.8462718E-01
  0.7551020E+00  0.0000000E+00  0.1836735E+00  0.3164085E-04  0.0000000E+00 -0.8461284E-01
  0.7959183E+00  0.0000000E+00  0.1836735E+00  0.2286630E-04  0.0000000E+00 -0.8460176E-01
  0.8367347E+00  0.0000000E+00  0.1836735E+00  0.1338344E-04  0.0000000E+00 -0.8459428E-01
  0.8775510E+00  0.0000000E+00  0.1836735E+00  0.3305070E-05  0.0000000E+00 -0.8459077E-01
  0.9183673E+00  0.0000000E+00  0.1836735E+00 -0.6804328E-05  0.0000000E+00 -0.8459138E-01
  0.9591837E+00  0.0000000E+00  0.1836735E+00 -0.1678326E-04  0.0000000E+00 -0.8459597E-01
  0.1000000E+01  0.0000000E+00  0.1836735E+00 -0.2650099E-04  0.0000000E+00 -0.8460444E-01
  0.1040816E+01  0.0000000E+00  0.1836735E+00 -0.3582026E-04  0.0000000E+00 -0.8461664E-01
  0.1081633E+01  0.0000000E+00  0.1836735E+00 -0.4460385E-04  0.0000000E+00 -0.8463238E-01
  0.1122449E+01  0.0000000E+00  0.1836735E+00 -0.5272246E-04  0.0000000E+00 -0.8465144E-01
  0.1163265E+01  0.0000000E+00  0.1836735E+00 -0.6005848E-04  0.0000000E+00 -0.8467351E-01
  0.1204082E+01  0.0000000E+00  0.1836735E+00 -0.6650769E-04  0.0000000E+00 -0.8469827E-01
  0.1244898E+01  0.0000000E+00  0.1836735E+00 -0.7198361E-04  0.0000000E+00 -0.8472535E-01
  0.1285714E+01  0.0000000E+00  0.1836735E+00 -0.7641877E-04  0.0000000E+00 -0.8475435E-01
  0.1326531E+01  0.0000000E+00  0.1836735E+00 -0.7976432E-04  0.0000000E+00 -0.8478486E-01
  0.1367347E+01  0.0000000E+00  0.1836735E+00 -0.8198996E-04  0.0000000E+00 -0.8481643E-01
  0.1408163E+01  0.0000000E+00  0.1836735E+00 -0.8308378E-04  0.0000000E+00 -0.8484863E-01
  0.1448980E+01  0.0000000E+00  0.1836735E+00 -0.8305097E-04  0.0000000E+00 -0.8488101E-01
  0.1489796E+01  0.0000000E+00  0.1836735E+00 -0.8191217E-04  0.0000000E+00 -0.8491314E-01
  0.1530612E+01  0.0000000E+00  0.1836735E+00 -0.7970233E-04  0.0000000E+00 -0.8494459E-01
  0.1571429E+01  0.0000000E+00  0.1836735E+00 -0.7646937E-04  0.0000000E+00 -0.8497496E-01
  0.1612245E+01  0.0000000E+00  0.1836735E+00 -0.7227252E-04  0.0000000E+00 -0.8500387E-01
  0.1653061E+01  0.0000000E+00  0.1836735E+00 -0.6718054E-04  0.0000000E+00 -0.8503095E-01
  0.1693878E+01  0.0000000E+00  0.1836735E+00 -0.6127041E-04  0.0000000E+00 -0.8505588E-01
  0.1734694E+01  0.0000000E+00  0.1836735E+00 -0.5462569E-04  0.0000000E+00 -0.8507836E-01
  0.1775510E+01  0.0000000E+00  0.1836735E+00 -0.4733524E-04  0.0000000E+00 -0.8509813E-01
  0.1816326E+01  0.0000000E+00  0.1836735E+00 -0.3949229E-04  0.0000000E+00 -0.8511496E-01
  0.1857143E+01  0.0000000E+00  0.1836735E+00 -0.3119347E-04  0.0000000E+00 -0.8512865E-01
  0.1897959E+01  0.0000000E+00  0.1836735E+00 -0.2253786E-04  0.0000000E+00 -0.8513906E-01
  0.1938776E+01  0.0000000E+00  0.1836735E+00 -0.1362619E-04  0.0000000E+00 -0.8514606E-01
  0.1989796E+01  0.0000000E+00  0.1836735E+00 -0.4559957E-05  0.0000000E+00 -0.8514959E-01
  0.2040816E-01  0.0000000E+00  0.2244898E+00  0.5081389E-05  0.0000000E+00 -0.8495882E-01
  0.6122449E-01  0.0000000E+00  0.2244898E+00  0.1515835E-04  0.0000000E+00 -0.8495522E-01
  0.1020408E+00  0.0000000E+00  0.2244898E+00  0.2497993E-04  0.0000000E+00 -0.8494809E-01
  0.1428571E+00  0.0000000E+00  0.2244898E+00  0.3437886E-04  0.0000000E+00 -0.8493754E-01
  0.1836735E+00  0.0000000E+00  0.2244898E+00  0.4319000E-04  0.0000000E+00 -0.8492374E-01
  0.2244898E+00  0.0000000E+00  0.2244898E+00  0.5125252E-04  0.0000000E+00 -0.8490692E-01
  0.2653061E+00  0.0000000E+00  0.2244898E+00  0.5841135E-04  0.0000000E+00 -0.8488736E-01
  0.3061225E+00  0.0000000E+00  0.2244898E+00  0.6451893E-04  0.0000000E+00 -0.8486541E-01
  0.3469388E+00  0.0000000E+00  0.2244898E+00  0.6943794E-04  0.0000000E+00 -0.8484143E-01
  0.3877551E+00  0.0000000E+00  0.2244898E+00  0.7304403E-04  0.0000000E+00 -0.8481588E-01
  0.4285714E+00  0.0000000E+00  0.2244898E+00  0.7522882E-04  0.0000000E+00 -0.8478923E-01
  0.4693878E+00  0.0000000E+00  0.2244898E+00  0.7590325E-04  0.0000000E+00 -0.8476199E-01
  0.5102041E+00  0.0000000E+00  0.2244898E+00  0.7500099E-04  0.0000000E+00 -0.8473471E-01
  0.5510204E+00  0.0000000E+00  0.2244898E+00  0.7248039E-04  0.0000000E+00 -0.8470795E-01
  0.5918368E+00  0.0000000E+00  0.2244898E+00  0.6831937E-04  0.0000000E+00 -0.8468230E-01
  0.6326531E+00  0.0000000E+00  0.2244898E+00  0.6248154E-04  0.0000000E+00 -0.8465838E-01
  0.6734694E+00  0.0000000E+00  0.2244898E+00  0.5477167E-04  0.0000000E+00 -0.8463712E-01
  0.7142857E+00  0.0000000E+00  0.2244898E+00  0.4641686E-04  0.0000000E+00 -0.8461893E-01
  0.7551020E+00  0.0000000E+00  0.2244898E+00  0.3719563E-04  0.0000000E+00 -0.8460376E-01
  0.7959183E+00  0.0000000E+00  0.2244898E+00  0.2708791E-04  0.0000000E+00 -0.8459187E-01
  0.8367347E+00  0.0000000E+00  0.2244898E+00  0.1607636E-04  0.0000000E+00 -0.8458361E-01
  0.8775510E+00  0.0000000E+00  0.2244898E+00  0.3898231E-05  0.0000000E+00 -0.8457976E-01
  0.9183673E+00  0.0000000E+00  0.2244898E+00 -0.7892060E-05  0.0000000E+00 -0.8458047E-01
  0.9591837E+00  0.0000000E+00  0.2244898E+00 -0.1947122E-04  0.0000000E+00 -0.8458530E-01
  0.1000000E+01  0.0000000E+00  0.2244898E+00 -0.3074464E-04  0.0000000E+00 -0.8459413E-01
  0.1040816E+01  0.0000000E+00  0.2244898E+00 -0.4155676E-04  0.0000000E+00 -0.8460684E-01
  0.1081633E+01  0.0000000E+00  0.2244898E+00 -0.5174575E-04  0.0000000E+00 -0.8462324E-01
  0.1122449E+01  0.0000000E+00  0.2244898E+00 -0.6115928E-04  0.0000000E+00 -0.8464308E-01
  0.1163265E+01  0.0000000E+00  0.2244898E+00 -0.6965965E-04  0.0000000E+00 -0.8466606E-01
  0.1204082E+01  0.0000000E+00  0.2244898E+00 -0.7712524E-04  0.0000000E+00 -0.8469183E-01
  0.1244898E+01  0.0000000E+00  0.2244898E+00 -0.8345526E-04  0.0000000E+00 -0.8472000E-01
  0.1285714E+01  0.0000000E+00  0.2244898E+00 -0.8857201E-04  0.0000000E+00 -0.8475016E-01
  0.1326531E+01  0.0000000E+00  0.2244898E+00 -0.9242053E-04  0.0000000E+00 -0.8478186E-01
  0.1367347E+01  0.0000000E+00  0.2244898E+00 -0.9496767E-04  0.0000000E+00 -0.8481466E-01
  0.1408163E+01  0.0000000E+00  0.2244898E+00 -0.9620145E-04  0.0000000E+00 -0.8484807E-01
  0.1448980E+01  0.0000000E+00  0.2244898E+00 -0.9612982E-04  0.0000000E+00 -0.8488166E-01
  0.1489796E+01  0.0000000E+00  0.2244898E+00 -0.9477870E-04  0.0000000E+00 -0.8491497E-01
  0.1530612E+01  0.0000000E+00  0.2244898E+00 -0.9219029E-04  0.0000000E+00 -0.8494755E-01
  0.1571429E+01  0.0000000E+00  0.2244898E+00 -0.8842152E-04  0.0000000E+00 -0.8497899E-01
  0.1612245E+01  0.0000000E+00  0.2244898E+00 -0.8354224E-04  0.0000000E+00 -0.8500890E-01
  0.1653061E+01  0.0000000E+00  0.2244898E+00 -0.7763317E-04  0.0000000E+00 -0.8503691E-01
  0.1693878E+01  0.0000000E+00  0.2244898E+00 -0.7078411E-04  0.0000000E+00 -0.8506268E-01
  0.1734694E+01  0.0000000E+00  0.2244898E+00 -0.6309216E-04  0.0000000E+00 -0.8508590E-01
  0.1775510E+01  0.0000000E+00  0.2244898E+00 -0.5466005E-04  0.0000000E+00 -0.8510632E-01
  0.1816326E+01  0.0000000E+00  0.2244898E+00 -0.4559508E-04  0.0000000E+00 -0.8512369E-01
  0.1857143E+01  0.0000000E+00  0.2244898E+00 -0.3600834E-04  0.0000000E+00 -0.8513782E-01
  0.1897959E+01  0.0000000E+00  0.2244898E+00 -0.2601373E-04  0.0000000E+00 -0.8514856E-01
  0.1938776E+01  0.0000000E+00  0.2244898E+00 -0.1572643E-04  0.0000000E+00 -0.8515578E-01
  0.1989796E+01  0.0000000E+00  0.2244898E+00 -0.5262479E-05  0.0000000E+00 -0.8515941E-01
  0.2040816E-01  0.0000000E+00  0.2653061E+00  0.5774125E-05  0.0000000E+00 -0.8496963E-01
  0.6122449E-01  0.0000000E+00  0.2653061E+00  0.1722659E-04  0.0000000E+00 -0.8496585E-01
  0.1020408E+00  0.0000000E+00  0.2653061E+00  0.2839387E-04  0.0000000E+00 -0.8495836E-01
  0.1428571E+00  0.0000000E+00  0.2653061E+00  0.3908873E-04  0.0000000E+00 -0.8494728E-01
  0.1836735E+00  0.0000000E+00  0.2653061E+00  0.4912600E-04  0.0000000E+00 -0.8493277E-01
  0.2244898E+00  0.0000000E+00  0.2653061E+00  0.5832478E-04  0.0000000E+00 -0.8491507E-01
  0.2653061E+00  0.0000000E+00  0.2653061E+00  0.6650996E-04  0.0000000E+00 -0.8489447E-01
  0.3061225E+00  0.0000000E+00  0.2653061E+00  0.7351408E-04  0.0000000E+00 -0.8487132E-01
  0.3469388E+00  0.0000000E+00  0.2653061E+00  0.7918029E-04  0.0000000E+00 -0.8484602E-01
  0.3877551E+00  0.0000000E+00  0.2653061E+00  0.8336532E-04  0.0000000E+00 -0.8481901E-01
  0.4285714E+00  0.0000000E+00  0.2653061E+00  0.8594302E-04  0.0000000E+00 -0.8479079E-01
  0.4693878E+00  0.0000000E+00  0.2653061E+00  0.8680855E-04  0.0000000E+00 -0.8476190E-01
  0.5102041E+00  0.0000000E+00  0.2653061E+00  0.8588365E-04  0.0000000E+00 -0.8473291E-01
  0.5510204E+00  0.0000000E+00  0.2653061E+00  0.8312353E-04  0.0000000E+00 -0.8470441E-01
  0.5918368E+00  0.0000000E+00  0.2653061E+00  0.7852660E-04  0.0000000E+00 -0.8467697E-01
  0.6326531E+00  0.0000000E+00  0.2653061E+00  0.7214294E-04  0.0000000E+00 -0.8465101E-01
  0.6734694E+00  0.0000000E+00  0.2653061E+00  0.6216805E-04  0.0000000E+00 -0.8462841E-01
  0.7142857E+00  0.0000000E+00  0.2653061E+00  0.5301150E-04  0.0000000E+00 -0.8460958E-01
  0.7551020E+00  0.0000000E+00  0.2653061E+00  0.4275715E-04  0.0000000E+00 -0.8459349E-01
  0.7959183E+00  0.0000000E+00  0.2653061E+00  0.3150717E-04  0.0000000E+00 -0.8458062E-01
  0.8367347E+00  0.0000000E+00  0.2653061E+00  0.1940415E-04  0.0000000E+00 -0.8457107E-01
  0.8775510E+00  0.0000000E+00  0.2653061E+00  0.4066298E-05  0.0000000E+00 -0.8456678E-01
  0.9183673E+00  0.0000000E+00  0.2653061E+00 -0.9020772E-05  0.0000000E+00 -0.8456799E-01
  0.9591837E+00  0.0000000E+00  0.2653061E+00 -0.2206820E-04  0.0000000E+00 -0.8457311E-01
  0.1000000E+01  0.0000000E+00  0.2653061E+00 -0.3482457E-04  0.0000000E+00 -0.8458235E-01
  0.1040816E+01  0.0000000E+00  0.2653061E+00 -0.4707076E-04  0.0000000E+00 -0.8459563E-01
  0.1081633E+01  0.0000000E+00  0.2653061E+00 -0.5861058E-04  0.0000000E+00 -0.8461278E-01
  0.1122449E+01  0.0000000E+00  0.2653061E+00 -0.6926676E-04  0.0000000E+00 -0.8463352E-01
  0.1163265E+01  0.0000000E+00  0.2653061E+00 -0.7888139E-04  0.0000000E+00 -0.8465754E-01
  0.1204082E+01  0.0000000E+00  0.2653061E+00 -0.8731575E-04  0.0000000E+00 -0.8468448E-01
  0.1244898E+01  0.0000000E+00  0.2653061E+00 -0.9445490E-04  0.0000000E+00 -0.8471391E-01
  0.1285714E+01  0.0000000E+00  0.2653061E+00 -0.1002114E-03  0.0000000E+00 -0.8474540E-01
  0.1326531E+01  0.0000000E+00  0.2653061E+00 -0.1045253E-03  0.0000000E+00 -0.8477848E-01