 variables = "ivol", "x", "z", "RSD"
zone t = "RSD, T =  6.000E+01 days", i =   50, j =   50, k =    1,  f=point
       1   0.00000   0.00000   0.00000
       2   0.04082   0.00000   0.00000
       3   0.08163   0.00000   0.00000
       4   0.12245   0.00000   0.00000
       5   0.16327   0.00000   0.00000
       6   0.20408   0.00000   0.00000
       7   0.24490   0.00000   0.00000
       8   0.28571   0.00000   0.00000
       9   0.32653   0.00000   0.00000
      10   0.36735   0.00000   0.00000
      11   0.40816   0.00000   0.00000
      12   0.44898   0.00000   0.00000
      13   0.48980   0.00000   0.00000
      14   0.53061   0.00000   0.00000
      15   0.57143   0.00000   0.00000
      16   0.61224   0.00000   0.00000
      17   0.65306   0.00000   0.00000
      18   0.69388   0.00000   0.00000
      19   0.73469   0.00000   0.00000
      20   0.77551   0.00000   0.00000
      21   0.81633   0.00000   0.00000
      22   0.85714   0.00000   0.00000
      23   0.89796   0.00000   0.00000
      24   0.93878   0.00000   0.00000
      25   0.97959   0.00000   0.00000
      26   1.02041   0.00000   0.00000
      27   1.06122   0.00000   0.00000
      28   1.10204   0.00000   0.00000
      29   1.14286   0.00000   0.00000
      30   1.18367   0.00000   0.00000
      31   1.22449   0.00000   0.00000
      32   1.26531   0.00000   0.00000
      33   1.30612   0.00000   0.00000
      34   1.34694   0.00000   0.00000
      35   1.38776   0.00000   0.00000
      36   1.42857   0.00000   0.00000
      37   1.46939   0.00000   0.00000
      38   1.51020   0.00000   0.00000
      39   1.55102   0.00000   0.00000
      40   1.59184   0.00000   0.00000
      41   1.63265   0.00000   0.00000
      42   1.67347   0.00000   0.00000
      43   1.71429   0.00000   0.00000
      44   1.75510   0.00000   0.00000
      45   1.79592   0.00000   0.00000
      46   1.83673   0.00000   0.00000
      47   1.87755   0.00000   0.00000
      48   1.91837   0.00000   0.00000
      49   1.95918   0.00000   0.00000
      50   2.00000   0.00000   0.00000
      51   0.00000   0.04082   0.00000
      52   0.04082   0.04082   0.00000
      53   0.08163   0.04082   0.00000
      54   0.12245   0.04082   0.00000
      55   0.16327   0.04082   0.00000
      56   0.20408   0.04082   0.00000
      57   0.24490   0.04082   0.00000
      58   0.28571   0.04082   0.00000
      59   0.32653   0.04082   0.00000
      60   0.36735   0.04082   0.00000
      61   0.40816   0.04082   0.00000
      62   0.44898   0.04082   0.00000
      63   0.48980   0.04082   0.00000
      64   0.53061   0.04082   0.00000
      65   0.57143   0.04082   0.00000
      66   0.61224   0.04082   0.00000
      67   0.65306   0.04082   0.00000
      68   0.69388   0.04082   0.00000
      69   0.73469   0.04082   0.00000
      70   0.77551   0.04082   0.00000
      71   0.81633   0.04082   0.00000
      72   0.85714   0.04082   0.00000
      73   0.89796   0.04082   0.00000
      74   0.93878   0.04082   0.00000
      75   0.97959   0.04082   0.00000
      76   1.02041   0.04082   0.00000
      77   1.06122   0.04082   0.00000
      78   1.10204   0.04082   0.00000
      79   1.14286   0.04082   0.00000
      80   1.18367   0.04082   0.00000
      81   1.22449   0.04082   0.00000
      82   1.26531   0.04082   0.00000
      83   1.30612   0.04082   0.00000
      84   1.34694   0.04082   0.00000
      85   1.38776   0.04082   0.00000
      86   1.42857   0.04082   0.00000
      87   1.46939   0.04082   0.00000
      88   1.51020   0.04082   0.00000
      89   1.55102   0.04082   0.00000
      90   1.59184   0.04082   0.00000
      91   1.63265   0.04082   0.00000
      92   1.67347   0.04082   0.00000
      93   1.71429   0.04082   0.00000
      94   1.75510   0.04082   0.00000
      95   1.79592   0.04082   0.00000
      96   1.83673   0.04082   0.00000
      97   1.87755   0.04082   0.00000
      98   1.91837   0.04082   0.00000
      99   1.95918   0.04082   0.00000
     100   2.00000   0.04082   0.00000
     101   0.00000   0.08163   0.00000
     102   0.04082   0.08163   0.00000
     103   0.08163   0.08163   0.00000
     104   0.12245   0.08163   0.00000
     105   0.16327   0.08163   0.00000
     106   0.20408   0.08163   0.00000
     107   0.24490   0.08163   0.00000
     108   0.28571   0.08163   0.00000
     109   0.32653   0.08163   0.00000
     110   0.36735   0.08163   0.00000
     111   0.40816   0.08163   0.00000
     112   0.44898   0.08163   0.00000
     113   0.48980   0.08163   0.00000
     114   0.53061   0.08163   0.00000
     115   0.57143   0.08163   0.00000
     116   0.61224   0.08163   0.00000
     117   0.65306   0.08163   0.00000
     118   0.69388   0.08163   0.00000
     119   0.73469   0.08163   0.00000
     120   0.77551   0.08163   0.00000
     121   0.81633   0.08163   0.00000
     122   0.85714   0.08163   0.00000
     123   0.89796   0.08163   0.00000
     124   0.93878   0.08163   0.00000
     125   0.97959   0.08163   0.00000
     126   1.02041   0.08163   0.00000
     127   1.06122   0.08163   0.00000
     128   1.10204   0.08163   0.00000
     129   1.14286   0.08163   0.00000
     130   1.18367   0.08163   0.00000
     131   1.22449   0.08163   0.00000
     132   1.26531   0.08163   0.00000
     133   1.30612   0.08163   0.00000
     134   1.34694   0.08163   0.00000
     135   1.38776   0.08163   0.00000
     136   1.42857   0.08163   0.00000
     137   1.46939   0.08163   0.00000
     138   1.51020   0.08163   0.00000
     139   1.55102   0.08163   0.00000
     140   1.59184   0.08163   0.00000
     141   1.63265   0.08163   0.00000
     142   1.67347   0.08163   0.00000
     143   1.71429   0.08163   0.00000
     144   1.75510   0.08163   0.00000
     145   1.79592   0.08163   0.00000
     146   1.83673   0.08163   0.00000
     147   1.87755   0.08163   0.00000
     148   1.91837   0.08163   0.00000
     149   1.95918   0.08163   0.00000
     150   2.00000   0.08163   0.00000
     151   0.00000   0.12245   0.00000
     152   0.04082   0.12245   0.00000
     153   0.08163   0.12245   0.00000
     154   0.12245   0.12245   0.00000
     155   0.16327   0.12245   0.00000
     156   0.20408   0.12245   0.00000
     157   0.24490   0.12245   0.00000
     158   0.28571   0.12245   0.00000
     159   0.32653   0.12245   0.00000
     160   0.36735   0.12245   0.00000
     161   0.40816   0.12245   0.00000
     162   0.44898   0.12245   0.00000
     163   0.48980   0.12245   0.00000
     164   0.53061   0.12245   0.00000
     165   0.57143   0.12245   0.00000
     166   0.61224   0.12245   0.00000
     167   0.65306   0.12245   0.00000
     168   0.69388   0.12245   0.00000
     169   0.73469   0.12245   0.00000
     170   0.77551   0.12245   0.00000
     171   0.81633   0.12245   0.00000
     172   0.85714   0.12245   0.00000
     173   0.89796   0.12245   0.00000
     174   0.93878   0.12245   0.00000
     175   0.97959   0.12245   0.00000
     176   1.02041   0.12245   0.00000
     177   1.06122   0.12245   0.00000
     178   1.10204   0.12245   0.00000
     179   1.14286   0.12245   0.00000
     180   1.18367   0.12245   0.00000
     181   1.22449   0.12245   0.00000
     182   1.26531   0.12245   0.00000
     183   1.30612   0.12245   0.00000
     184   1.34694   0.12245   0.00000
     185   1.38776   0.12245   0.00000
     186   1.42857   0.12245   0.00000
     187   1.46939   0.12245   0.00000
     188   1.51020   0.12245   0.00000
     189   1.55102   0.12245   0.00000
     190   1.59184   0.12245   0.00000
     191   1.63265   0.12245   0.00000
     192   1.67347   0.12245   0.00000
     193   1.71429   0.12245   0.00000
     194   1.75510   0.12245   0.00000
     195   1.79592   0.12245   0.00000
     196   1.83673   0.12245   0.00000
     197   1.87755   0.12245   0.00000
     198   1.91837   0.12245   0.00000
     199   1.95918   0.12245   0.00000
     200   2.00000   0.12245   0.00000
     201   0.00000   0.16327   0.00000
     202   0.04082   0.16327   0.00000
     203   0.08163   0.16327   0.00000
     204   0.12245   0.16327   0.00000
     205   0.16327   0.16327   0.00000
     206   0.20408   0.16327   0.00000
     207   0.24490   0.16327   0.00000
     208   0.28571   0.16327   0.00000
     209   0.32653   0.16327   0.00000
     210   0.36735   0.16327   0.00000
     211   0.40816   0.16327   0.00000
     212   0.44898   0.16327   0.00000
     213   0.48980   0.16327   0.00000
     214   0.53061   0.16327   0.00000
     215   0.57143   0.16327   0.00000
     216   0.61224   0.16327   0.00000
     217   0.65306   0.16327   0.00000
     218   0.69388   0.16327   0.00000
     219   0.73469   0.16327   0.00000
     220   0.77551   0.16327   0.00000
     221   0.81633   0.16327   0.00000
     222   0.85714   0.16327   0.00000
     223   0.89796   0.16327   0.00000
     224   0.93878   0.16327   0.00000
     225   0.97959   0.16327   0.00000
     226   1.02041   0.16327   0.00000
     227   1.06122   0.16327   0.00000
     228   1.10204   0.16327   0.00000
     229   1.14286   0.16327   0.00000
     230   1.18367   0.16327   0.00000
     231   1.22449   0.16327   0.00000
     232   1.26531   0.16327   0.00000
     233   1.30612   0.16327   0.00000
     234   1.34694   0.16327   0.00000
     235   1.38776   0.16327   0.00000
     236   1.42857   0.16327   0.00000
     237   1.46939   0.16327   0.00000
     238   1.51020   0.16327   0.00000
     239   1.55102   0.16327   0.00000
     240   1.59184   0.16327   0.00000
     241   1.63265   0.16327   0.00000
     242   1.67347   0.16327   0.00000
     243   1.71429   0.16327   0.00000
     244   1.75510   0.16327   0.00000
     245   1.79592   0.16327   0.00000
     246   1.83673   0.16327   0.00000
     247   1.87755   0.16327   0.00000
     248   1.91837   0.16327   0.00000
     249   1.95918   0.16327   0.00000
     250   2.00000   0.16327   0.00000
     251   0.00000   0.20408   0.00000
     252   0.04082   0.20408   0.00000
     253   0.08163   0.20408   0.00000
     254   0.12245   0.20408   0.00000
     255   0.16327   0.20408   0.00000
     256   0.20408   0.20408   0.00000
     257   0.24490   0.20408   0.00000
     258   0.28571   0.20408   0.00000
     259   0.32653   0.20408   0.00000
     260   0.36735   0.20408   0.00000
     261   0.40816   0.20408   0.00000
     262   0.44898   0.20408   0.00000
     263   0.48980   0.20408   0.00000
     264   0.53061   0.20408   0.00000
     265   0.57143   0.20408   0.00000
     266   0.61224   0.20408   0.00000
     267   0.65306   0.20408   0.07658
     268   0.69388   0.20408   0.00000
     269   0.73469   0.20408   0.00000
     270   0.77551   0.20408   0.00000
     271   0.81633   0.20408   0.00000
     272   0.85714   0.20408   0.10210
     273   0.89796   0.20408   0.00000
     274   0.93878   0.20408   0.00000
     275   0.97959   0.20408   0.00000
     276   1.02041   0.20408   0.00000
     277   1.06122   0.20408   0.00000
     278   1.10204   0.20408   0.00000
     279   1.14286   0.20408   0.00000
     280   1.18367   0.20408   0.00000
     281   1.22449   0.20408   0.00000
     282   1.26531   0.20408   0.00000
     283   1.30612   0.20408   0.00000
     284   1.34694   0.20408   0.00000
     285   1.38776   0.20408   0.00000
     286   1.42857   0.20408   0.00000
     287   1.46939   0.20408   0.00000
     288   1.51020   0.20408   0.00000
     289   1.55102   0.20408   0.00000
     290   1.59184   0.20408   0.00000
     291   1.63265   0.20408   0.00000
     292   1.67347   0.20408   0.00000
     293   1.71429   0.20408   0.00000
     294   1.75510   0.20408   0.00000
     295   1.79592   0.20408   0.00000
     296   1.83673   0.20408   0.00000
     297   1.87755   0.20408   0.00000
     298   1.91837   0.20408   0.00000
     299   1.95918   0.20408   0.00000
     300   2.00000   0.20408   0.00000
     301   0.00000   0.24490   0.00000
     302   0.04082   0.24490   0.00000
     303   0.08163   0.24490   0.00000
     304   0.12245   0.24490   0.00000
     305   0.16327   0.24490   0.00000
     306   0.20408   0.24490   0.00000
     307   0.24490   0.24490   0.00000
     308   0.28571   0.24490   0.00000
     309   0.32653   0.24490   0.00000
     310   0.36735   0.24490   0.00000
     311   0.40816   0.24490   0.00000
     312   0.44898   0.24490   0.00000
     313   0.48980   0.24490   0.00000
     314   0.53061   0.24490   0.00000
     315   0.57143   0.24490   0.00000
     316   0.61224   0.24490   0.00000
     317   0.65306   0.24490   0.10210
     318   0.69388   0.24490   0.00000
     319   0.73469   0.24490   0.00000
     320   0.77551   0.24490   0.00000
     321   0.81633   0.24490   0.00000
     322   0.85714   0.24490   0.10210
     323   0.89796   0.24490   0.00000
     324   0.93878   0.24490   0.00000
     325   0.97959   0.24490   0.00000
     326   1.02041   0.24490   0.00000
     327   1.06122   0.24490   0.00000
     328   1.10204   0.24490   0.00000
     329   1.14286   0.24490   0.00000
     330   1.18367   0.24490   0.00000
     331   1.22449   0.24490   0.00000
     332   1.26531   0.24490   0.00000
     333   1.30612   0.24490   0.00000
     334   1.34694   0.24490   0.00000
     335   1.38776   0.24490   0.00000
     336   1.42857   0.24490   0.00000
     337   1.46939   0.24490   0.00000
     338   1.51020   0.24490   0.00000
     339   1.55102   0.24490   0.00000
     340   1.59184   0.24490   0.00000
     341   1.63265   0.24490   0.00000
     342   1.67347   0.24490   0.00000
     343   1.71429   0.24490   0.00000
     344   1.75510   0.24490   0.00000
     345   1.79592   0.24490   0.00000
     346   1.83673   0.24490   0.00000
     347   1.87755   0.24490   0.00000
     348   1.91837   0.24490   0.00000
     349   1.95918   0.24490   0.00000
     350   2.00000   0.24490   0.00000
     351   0.00000   0.28571   0.00000
     352   0.04082   0.28571   0.00000
     353   0.08163   0.28571   0.00000
     354   0.12245   0.28571   0.00000
     355   0.16327   0.28571   0.00000
     356   0.20408   0.28571   0.00000
     357   0.24490   0.28571   0.00000
     358   0.28571   0.28571   0.00000
     359   0.32653   0.28571   0.00000
     360   0.36735   0.28571   0.00000
     361   0.40816   0.28571   0.00000
     362   0.44898   0.28571   0.00000
     363   0.48980   0.28571   0.00000
     364   0.53061   0.28571   0.00000
     365   0.57143   0.28571   0.00000
     366   0.61224   0.28571   0.00000
     367   0.65306   0.28571   0.11486
     368   0.69388   0.28571   0.00000
     369   0.73469   0.28571   0.00000
     370   0.77551   0.28571   0.00000
     371   0.81633   0.28571   0.00000
     372   0.85714   0.28571   0.11486
     373   0.89796   0.28571   0.00000
     374   0.93878   0.28571   0.00000
     375   0.97959   0.28571   0.00000
     376   1.02041   0.28571   0.00000
     377   1.06122   0.28571   0.00000
     378   1.10204   0.28571   0.00000
     379   1.14286   0.28571   0.00000
     380   1.18367   0.28571   0.00000
     381   1.22449   0.28571   0.00000
     382   1.26531   0.28571   0.00000
     383   1.30612   0.28571   0.00000
     384   1.34694   0.28571   0.00000
     385   1.38776   0.28571   0.00000
     386   1.42857   0.28571   0.00000
     387   1.46939   0.28571   0.00000
     388   1.51020   0.28571   0.00000
     389   1.55102   0.28571   0.00000
     390   1.59184   0.28571   0.00000
     391   1.63265   0.28571   0.00000
     392   1.67347   0.28571   0.00000
     393   1.71429   0.28571   0.00000
     394   1.75510   0.28571   0.00000
     395   1.79592   0.28571   0.00000
     396   1.83673   0.28571   0.00000
     397   1.87755   0.28571   0.00000
     398   1.91837   0.28571   0.00000
     399   1.95918   0.28571   0.00000
     400   2.00000   0.28571   0.00000
     401   0.00000   0.32653   0.00000
     402   0.04082   0.32653   0.00000
     403   0.08163   0.32653   0.00000
     404   0.12245   0.32653   0.00000
     405   0.16327   0.32653   0.00000
     406   0.20408   0.32653   0.00000
     407   0.24490   0.32653   0.00000
     408   0.28571   0.32653   0.00000
     409   0.32653   0.32653   0.00000
     410   0.36735   0.32653   0.00000
     411   0.40816   0.32653   0.00000
     412   0.44898   0.32653   0.00000
     413   0.48980   0.32653   0.00000
     414   0.53061   0.32653   0.00000
     415   0.57143   0.32653   0.00000
     416   0.61224   0.32653   0.00000
     417   0.65306   0.32653   0.10210
     418   0.69388   0.32653   0.00000
     419   0.73469   0.32653   0.00000
     420   0.77551   0.32653   0.00000
     421   0.81633   0.32653   0.00000
     422   0.85714   0.32653   0.10210
     423   0.89796   0.32653   0.00000
     424   0.93878   0.32653   0.00000
     425   0.97959   0.32653   0.00000
     426   1.02041   0.32653   0.00000
     427   1.06122   0.32653   0.00000
     428   1.10204   0.32653   0.00000
     429   1.14286   0.32653   0.00000
     430   1.18367   0.32653   0.00000
     431   1.22449   0.32653   0.00000
     432   1.26531   0.32653   0.00000
     433   1.30612   0.32653   0.00000
     434   1.34694   0.32653   0.00000
     435   1.38776   0.32653   0.00000
     436   1.42857   0.32653   0.00000
     437   1.46939   0.32653   0.00000
     438   1.51020   0.32653   0.00000
     439   1.55102   0.32653   0.00000
     440   1.59184   0.32653   0.00000
     441   1.63265   0.32653   0.00000
     442   1.67347   0.32653   0.00000
     443   1.71429   0.32653   0.00000
     444   1.75510   0.32653   0.00000
     445   1.79592   0.32653   0.00000
     446   1.83673   0.32653   0.00000
     447   1.87755   0.32653   0.00000
     448   1.91837   0.32653   0.00000
     449   1.95918   0.32653   0.00000
     450   2.00000   0.32653   0.00000
     451   0.00000   0.36735   0.00000
     452   0.04082   0.36735   0.00000
     453   0.08163   0.36735   0.00000
     454   0.12245   0.36735   0.00000
     455   0.16327   0.36735   0.00000
     456   0.20408   0.36735   0.00000
     457   0.24490   0.36735   0.00000
     458   0.28571   0.36735   0.00000
     459   0.32653   0.36735   0.00000
     460   0.36735   0.36735   0.00000
     461   0.40816   0.36735   0.00000
     462   0.44898   0.36735   0.00000
     463   0.48980   0.36735   0.00000
     464   0.53061   0.36735   0.00000
     465   0.57143   0.36735   0.00000
     466   0.61224   0.36735   0.00000
     467   0.65306   0.36735   0.10210
     468   0.69388   0.36735   0.00000
     469   0.73469   0.36735   0.00000
     470   0.77551   0.36735   0.00000
     471   0.81633   0.36735   0.00000
     472   0.85714   0.36735   0.10210
     473   0.89796   0.36735   0.00000
     474   0.93878   0.36735   0.00000
     475   0.97959   0.36735   0.00000
     476   1.02041   0.36735   0.00000
     477   1.06122   0.36735   0.00000
     478   1.10204   0.36735   0.00000
     479   1.14286   0.36735   0.00000
     480   1.18367   0.36735   0.00000
     481   1.22449   0.36735   0.00000
     482   1.26531   0.36735   0.00000
     483   1.30612   0.36735   0.00000
     484   1.34694   0.36735   0.00000
     485   1.38776   0.36735   0.00000
     486   1.42857   0.36735   0.00000
     487   1.46939   0.36735   0.00000
     488   1.51020   0.36735   0.00000
     489   1.55102   0.36735   0.00000
     490   1.59184   0.36735   0.00000
     491   1.63265   0.36735   0.00000
     492   1.67347   0.36735   0.00000
     493   1.71429   0.36735   0.00000
     494   1.75510   0.36735   0.00000
     495   1.79592   0.36735   0.00000
     496   1.83673   0.36735   0.00000
     497   1.87755   0.36735   0.00000
     498   1.91837   0.36735   0.00000
     499   1.95918   0.36735   0.00000
     500   2.00000   0.36735   0.00000
     501   0.00000   0.40816   0.00000
     502   0.04082   0.40816   0.00000
     503   0.08163   0.40816   0.00000
     504   0.12245   0.40816   0.00000
     505   0.16327   0.40816   0.00000
     506   0.20408   0.40816   0.00000
     507   0.24490   0.40816   0.00000
     508   0.28571   0.40816   0.00000
     509   0.32653   0.40816   0.00000
     510   0.36735   0.40816   0.00000
     511   0.40816   0.40816   0.00000
     512   0.44898   0.40816   0.00000
     513   0.48980   0.40816   0.00000
     514   0.53061   0.40816   0.00000
     515   0.57143   0.40816   0.00000
     516   0.61224   0.40816   0.07658
     517   0.65306   0.40816   0.03829
     518   0.69388   0.40816   0.00000
     519   0.73469   0.40816   0.00000
     520   0.77551   0.40816   0.00000
     521   0.81633   0.40816   0.00000
     522   0.85714   0.40816   0.05105
     523   0.89796   0.40816   0.06381
     524   0.93878   0.40816   0.00000
     525   0.97959   0.40816   0.00000
     526   1.02041   0.40816   0.00000
     527   1.06122   0.40816   0.00000
     528   1.10204   0.40816   0.00000
     529   1.14286   0.40816   0.00000
     530   1.18367   0.40816   0.00000
     531   1.22449   0.40816   0.00000
     532   1.26531   0.40816   0.00000
     533   1.30612   0.40816   0.00000
     534   1.34694   0.40816   0.00000
     535   1.38776   0.40816   0.00000
     536   1.42857   0.40816   0.00000
     537   1.46939   0.40816   0.00000
     538   1.51020   0.40816   0.00000
     539   1.55102   0.40816   0.00000
     540   1.59184   0.40816   0.00000
     541   1.63265   0.40816   0.00000
     542   1.67347   0.40816   0.00000
     543   1.71429   0.40816   0.00000
     544   1.75510   0.40816   0.00000
     545   1.79592   0.40816   0.00000
     546   1.83673   0.40816   0.00000
     547   1.87755   0.40816   0.00000
     548   1.91837   0.40816   0.00000
     549   1.95918   0.40816   0.00000
     550   2.00000   0.40816   0.00000
     551   0.00000   0.44898   0.00000
     552   0.04082   0.44898   0.00000
     553   0.08163   0.44898   0.00000
     554   0.12245   0.44898   0.00000
     555   0.16327   0.44898   0.00000
     556   0.20408   0.44898   0.00000
     557   0.24490   0.44898   0.00000
     558   0.28571   0.44898   0.00000
     559   0.32653   0.44898   0.00000
     560   0.36735   0.44898   0.00000
     561   0.40816   0.44898   0.00000
     562   0.44898   0.44898   0.00000
     563   0.48980   0.44898   0.00000
     564   0.53061   0.44898   0.00000
     565   0.57143   0.44898   0.00000
     566   0.61224   0.44898   0.16717
     567   0.65306   0.44898   0.00000
     568   0.69388   0.44898   0.00000
     569   0.73469   0.44898   0.00000
     570   0.77551   0.44898   0.00000
     571   0.81633   0.44898   0.00000
     572   0.85714   0.44898   0.00368
     573   0.89796   0.44898   0.14421
     574   0.93878   0.44898   0.00000
     575   0.97959   0.44898   0.00000
     576   1.02041   0.44898   0.00000
     577   1.06122   0.44898   0.00000
     578   1.10204   0.44898   0.00000
     579   1.14286   0.44898   0.00000
     580   1.18367   0.44898   0.00000
     581   1.22449   0.44898   0.00000
     582   1.26531   0.44898   0.00000
     583   1.30612   0.44898   0.00000
     584   1.34694   0.44898   0.00000
     585   1.38776   0.44898   0.00000
     586   1.42857   0.44898   0.00000
     587   1.46939   0.44898   0.00000
     588   1.51020   0.44898   0.00000
     589   1.55102   0.44898   0.00000
     590   1.59184   0.44898   0.00000
     591   1.63265   0.44898   0.00000
     592   1.67347   0.44898   0.00000
     593   1.71429   0.44898   0.00000
     594   1.75510   0.44898   0.00000
     595   1.79592   0.44898   0.00000
     596   1.83673   0.44898   0.00000
     597   1.87755   0.44898   0.00000
     598   1.91837   0.44898   0.00000
     599   1.95918   0.44898   0.00000
     600   2.00000   0.44898   0.00000
     601   0.00000   0.48980   0.00000
     602   0.04082   0.48980   0.00000
     603   0.08163   0.48980   0.00000
     604   0.12245   0.48980   0.00000
     605   0.16327   0.48980   0.00000
     606   0.20408   0.48980   0.00000
     607   0.24490   0.48980   0.00000
     608   0.28571   0.48980   0.00000
     609   0.32653   0.48980   0.00000
     610   0.36735   0.48980   0.00000
     611   0.40816   0.48980   0.00000
     612   0.44898   0.48980   0.00000
     613   0.48980   0.48980   0.00000
     614   0.53061   0.48980   0.00000
     615   0.57143   0.48980   0.00000
     616   0.61224   0.48980   0.22696
     617   0.65306   0.48980   0.00000
     618   0.69388   0.48980   0.00000
     619   0.73469   0.48980   0.00000
     620   0.77551   0.48980   0.00000
     621   0.81633   0.48980   0.00000
     622   0.85714   0.48980   0.00325
     623   0.89796   0.48980   0.22231
     624   0.93878   0.48980   0.00000
     625   0.97959   0.48980   0.00000
     626   1.02041   0.48980   0.00000
     627   1.06122   0.48980   0.00000
     628   1.10204   0.48980   0.00000
     629   1.14286   0.48980   0.00000
     630   1.18367   0.48980   0.00000
     631   1.22449   0.48980   0.01787
     632   1.26531   0.48980   0.00000
     633   1.30612   0.48980   0.00000
     634   1.34694   0.48980   0.00000
     635   1.38776   0.48980   0.00000
     636   1.42857   0.48980   0.00000
     637   1.46939   0.48980   0.00000
     638   1.51020   0.48980   0.00000
     639   1.55102   0.48980   0.00000
     640   1.59184   0.48980   0.00000
     641   1.63265   0.48980   0.00000
     642   1.67347   0.48980   0.00000
     643   1.71429   0.48980   0.00000
     644   1.75510   0.48980   0.00000
     645   1.79592   0.48980   0.00000
     646   1.83673   0.48980   0.00000
     647   1.87755   0.48980   0.00000
     648   1.91837   0.48980   0.00000
     649   1.95918   0.48980   0.00000
     650   2.00000   0.48980   0.00000
     651   0.00000   0.53061   0.00000
     652   0.04082   0.53061   0.00000
     653   0.08163   0.53061   0.00000
     654   0.12245   0.53061   0.00000
     655   0.16327   0.53061   0.00000
     656   0.20408   0.53061   0.00000
     657   0.24490   0.53061   0.00000
     658   0.28571   0.53061   0.00000
     659   0.32653   0.53061   0.00000
     660   0.36735   0.53061   0.00000
     661   0.40816   0.53061   0.00000
     662   0.44898   0.53061   0.00000
     663   0.48980   0.53061   0.00000
     664   0.53061   0.53061   0.00000
     665   0.57143   0.53061   0.00250
     666   0.61224   0.53061   0.29146
     667   0.65306   0.53061   0.00000
     668   0.69388   0.53061   0.00000
     669   0.73469   0.53061   0.00000
     670   0.77551   0.53061   0.00000
     671   0.81633   0.53061   0.00000
     672   0.85714   0.53061   0.00898
     673   0.89796   0.53061   0.30295
     674   0.93878   0.53061   0.00000
     675   0.97959   0.53061   0.00000
     676   1.02041   0.53061   0.00000
     677   1.06122   0.53061   0.03574
     678   1.10204   0.53061   0.03574
     679   1.14286   0.53061   0.00000
     680   1.18367   0.53061   0.05360
     681   1.22449   0.53061   0.01787
     682   1.26531   0.53061   0.00000
     683   1.30612   0.53061   0.00000
     684   1.34694   0.53061   0.00000
     685   1.38776   0.53061   0.00000
     686   1.42857   0.53061   0.00000
     687   1.46939   0.53061   0.00000
     688   1.51020   0.53061   0.00000
     689   1.55102   0.53061   0.00000
     690   1.59184   0.53061   0.00000
     691   1.63265   0.53061   0.00000
     692   1.67347   0.53061   0.00000
     693   1.71429   0.53061   0.00000
     694   1.75510   0.53061   0.00000
     695   1.79592   0.53061   0.00000
     696   1.83673   0.53061   0.00000
     697   1.87755   0.53061   0.00000
     698   1.91837   0.53061   0.00000
     699   1.95918   0.53061   0.00000
     700   2.00000   0.53061   0.00000
     701   0.00000   0.57143   0.00000
     702   0.04082   0.57143   0.00000
     703   0.08163   0.57143   0.00000
     704   0.12245   0.57143   0.00000
     705   0.16327   0.57143   0.00000
     706   0.20408   0.57143   0.00000
     707   0.24490   0.57143   0.00000
     708   0.28571   0.57143   0.00000
     709   0.32653   0.57143   0.00000
     710   0.36735   0.57143   0.00000
     711   0.40816   0.57143   0.00000
     712   0.44898   0.57143   0.00000
     713   0.48980   0.57143   0.00000
     714   0.53061   0.57143   0.00000
     715   0.57143   0.57143   0.02485
     716   0.61224   0.57143   0.35979
     717   0.65306   0.57143   0.01992
     718   0.69388   0.57143   0.00000
     719   0.73469   0.57143   0.00000
     720   0.77551   0.57143   0.00000
     721   0.81633   0.57143   0.08934
     722   0.85714   0.57143   0.02801
     723   0.89796   0.57143   0.33189
     724   0.93878   0.57143   0.02902
     725   0.97959   0.57143   0.00000
     726   1.02041   0.57143   0.00000
     727   1.06122   0.57143   0.08040
     728   1.10204   0.57143   0.00000
     729   1.14286   0.57143   0.00000
     730   1.18367   0.57143   0.08041
     731   1.22449   0.57143   0.00000
     732   1.26531   0.57143   0.00000
     733   1.30612   0.57143   0.00000
     734   1.34694   0.57143   0.00000
     735   1.38776   0.57143   0.07658
     736   1.42857   0.57143   0.00000
     737   1.46939   0.57143   0.00000
     738   1.51020   0.57143   0.00000
     739   1.55102   0.57143   0.00000
     740   1.59184   0.57143   0.00000
     741   1.63265   0.57143   0.00000
     742   1.67347   0.57143   0.00000
     743   1.71429   0.57143   0.00000
     744   1.75510   0.57143   0.00000
     745   1.79592   0.57143   0.00000
     746   1.83673   0.57143   0.00000
     747   1.87755   0.57143   0.00000
     748   1.91837   0.57143   0.00000
     749   1.95918   0.57143   0.00000
     750   2.00000   0.57143   0.00000
     751   0.00000   0.61224   0.00000
     752   0.04082   0.61224   0.00000
     753   0.08163   0.61224   0.00000
     754   0.12245   0.61224   0.00000
     755   0.16327   0.61224   0.00000
     756   0.20408   0.61224   0.00000
     757   0.24490   0.61224   0.00000
     758   0.28571   0.61224   0.00000
     759   0.32653   0.61224   0.00000
     760   0.36735   0.61224   0.00000
     761   0.40816   0.61224   0.00000
     762   0.44898   0.61224   0.00000
     763   0.48980   0.61224   0.00000
     764   0.53061   0.61224   0.00000
     765   0.57143   0.61224   0.01346
     766   0.61224   0.61224   0.32832