title = "dataset feddes"
variables = "x", "y", "z", "vx", "vy", "vz"
zone t = "velocities, solution time =  4.900E+01 days        " i =   99, j =   99, k =    1,  f=point
 -0.5050505E-02  0.0000000E+00 -0.5050505E-02  0.2040619E-09  0.0000000E+00  0.1502411E-05
 -0.5050505E-02  0.0000000E+00 -0.5050505E-02  0.6113643E-09  0.0000000E+00  0.1503231E-05
 -0.5050505E-02  0.0000000E+00 -0.5050505E-02  0.1016329E-08  0.0000000E+00  0.1504868E-05
 -0.5050505E-02  0.0000000E+00 -0.5050505E-02  0.1417418E-08  0.0000000E+00  0.1507316E-05
 -0.5050505E-02  0.0000000E+00 -0.5050505E-02  0.1813089E-08  0.0000000E+00  0.1510565E-05
 -0.5050505E-02  0.0000000E+00 -0.5050505E-02  0.2201817E-08  0.0000000E+00  0.1514603E-05
 -0.5050504E-02  0.0000000E+00 -0.5050505E-02  0.2582101E-08  0.0000000E+00  0.1519414E-05
 -0.5050501E-02  0.0000000E+00 -0.5050505E-02  0.2952461E-08  0.0000000E+00  0.1524980E-05
 -0.5050495E-02  0.0000000E+00 -0.5050505E-02  0.3311446E-08  0.0000000E+00  0.1531280E-05
 -0.5050482E-02  0.0000000E+00 -0.5050505E-02  0.3657639E-08  0.0000000E+00  0.1538289E-05
 -0.5050449E-02  0.0000000E+00 -0.5050505E-02  0.3989659E-08  0.0000000E+00  0.1545980E-05
 -0.5050376E-02  0.0000000E+00 -0.5050505E-02  0.4306168E-08  0.0000000E+00  0.1554323E-05
 -0.5050299E-02  0.0000000E+00 -0.5050505E-02  0.4605876E-08  0.0000000E+00  0.1563286E-05
 -0.5050178E-02  0.0000000E+00 -0.5050505E-02  0.4887545E-08  0.0000000E+00  0.1572834E-05
 -0.5050018E-02  0.0000000E+00 -0.5050505E-02  0.5149992E-08  0.0000000E+00  0.1582928E-05
 -0.5049710E-02  0.0000000E+00 -0.5050505E-02  0.5392098E-08  0.0000000E+00  0.1593531E-05
 -0.5049253E-02  0.0000000E+00 -0.5050505E-02  0.5612809E-08  0.0000000E+00  0.1604599E-05
 -0.5048636E-02  0.0000000E+00 -0.5050505E-02  0.5811143E-08  0.0000000E+00  0.1616088E-05
 -0.5047442E-02  0.0000000E+00 -0.5050505E-02  0.5986197E-08  0.0000000E+00  0.1627953E-05
 -0.5045727E-02  0.0000000E+00 -0.5050505E-02  0.6137145E-08  0.0000000E+00  0.1640145E-05
 -0.5043261E-02  0.0000000E+00 -0.5050505E-02  0.6263250E-08  0.0000000E+00  0.1652616E-05
 -0.5038714E-02  0.0000000E+00 -0.5050505E-02  0.6363867E-08  0.0000000E+00  0.1665316E-05
 -0.5032318E-02  0.0000000E+00 -0.5050505E-02  0.6438442E-08  0.0000000E+00  0.1678191E-05
 -0.5022454E-02  0.0000000E+00 -0.5050505E-02  0.6486524E-08  0.0000000E+00  0.1691190E-05
 -0.5012589E-02  0.0000000E+00 -0.5050505E-02  0.6507764E-08  0.0000000E+00  0.1704259E-05
 -0.5002725E-02  0.0000000E+00 -0.5050505E-02  0.6501919E-08  0.0000000E+00  0.1717343E-05
 -0.4992860E-02  0.0000000E+00 -0.5050505E-02  0.6468857E-08  0.0000000E+00  0.1730388E-05
 -0.4976523E-02  0.0000000E+00 -0.5050505E-02  0.6408558E-08  0.0000000E+00  0.1743339E-05
 -0.4956794E-02  0.0000000E+00 -0.5050505E-02  0.6321118E-08  0.0000000E+00  0.1756141E-05
 -0.4937066E-02  0.0000000E+00 -0.5050505E-02  0.6206749E-08  0.0000000E+00  0.1768741E-05
 -0.4906239E-02  0.0000000E+00 -0.5050505E-02  0.6065781E-08  0.0000000E+00  0.1781083E-05
 -0.4866782E-02  0.0000000E+00 -0.5050505E-02  0.5898665E-08  0.0000000E+00  0.1793116E-05
 -0.4827325E-02  0.0000000E+00 -0.5050505E-02  0.5705969E-08  0.0000000E+00  0.1804787E-05
 -0.4769372E-02  0.0000000E+00 -0.5050505E-02  0.5488378E-08  0.0000000E+00  0.1816046E-05
 -0.4690458E-02  0.0000000E+00 -0.5050505E-02  0.5246696E-08  0.0000000E+00  0.1826842E-05
 -0.4611543E-02  0.0000000E+00 -0.5050505E-02  0.4981841E-08  0.0000000E+00  0.1837129E-05
 -0.4503035E-02  0.0000000E+00 -0.5050505E-02  0.4694843E-08  0.0000000E+00  0.1846861E-05
 -0.4345206E-02  0.0000000E+00 -0.5050505E-02  0.4386840E-08  0.0000000E+00  0.1855995E-05
 -0.4187378E-02  0.0000000E+00 -0.5050505E-02  0.4059074E-08  0.0000000E+00  0.1864489E-05
 -0.3985156E-02  0.0000000E+00 -0.5050505E-02  0.3712885E-08  0.0000000E+00  0.1872306E-05
 -0.3669499E-02  0.0000000E+00 -0.5050505E-02  0.3349709E-08  0.0000000E+00  0.1879409E-05
 -0.3353842E-02  0.0000000E+00 -0.5050505E-02  0.2971065E-08  0.0000000E+00  0.1885766E-05
 -0.2978990E-02  0.0000000E+00 -0.5050505E-02  0.2578555E-08  0.0000000E+00  0.1891347E-05
 -0.2347676E-02  0.0000000E+00 -0.5050505E-02  0.2173850E-08  0.0000000E+00  0.1896127E-05
 -0.1716362E-02  0.0000000E+00 -0.5050505E-02  0.1758688E-08  0.0000000E+00  0.1900082E-05
 -0.1025842E-02  0.0000000E+00 -0.5050505E-02  0.1334858E-08  0.0000000E+00  0.1903193E-05
  0.2367855E-03  0.0000000E+00 -0.5050505E-02  0.9041976E-09  0.0000000E+00  0.1905445E-05
  0.1499413E-02  0.0000000E+00 -0.5050505E-02  0.4685792E-09  0.0000000E+00  0.1906825E-05
  0.2762042E-02  0.0000000E+00 -0.5050505E-02  0.2990175E-10  0.0000000E+00  0.1907327E-05
 -0.5050505E-02  0.0000000E+00 -0.5050505E-02 -0.4099202E-09  0.0000000E+00  0.1906945E-05
 -0.5050505E-02  0.0000000E+00 -0.5050505E-02 -0.8489649E-09  0.0000000E+00  0.1905678E-05
 -0.5050505E-02  0.0000000E+00 -0.5050505E-02 -0.1285316E-08  0.0000000E+00  0.1903532E-05
 -0.5050505E-02  0.0000000E+00 -0.5050505E-02 -0.1717070E-08  0.0000000E+00  0.1900512E-05
 -0.5050505E-02  0.0000000E+00 -0.5050505E-02 -0.2142350E-08  0.0000000E+00  0.1896631E-05
 -0.5050505E-02  0.0000000E+00 -0.5050505E-02 -0.2559313E-08  0.0000000E+00  0.1891902E-05
 -0.5050505E-02  0.0000000E+00 -0.5050505E-02 -0.2966157E-08  0.0000000E+00  0.1886345E-05
 -0.5050504E-02  0.0000000E+00 -0.5050505E-02 -0.3361136E-08  0.0000000E+00  0.1879982E-05
 -0.5050501E-02  0.0000000E+00 -0.5050505E-02 -0.3742565E-08  0.0000000E+00  0.1872837E-05
 -0.5050495E-02  0.0000000E+00 -0.5050505E-02 -0.4108827E-08  0.0000000E+00  0.1864941E-05
 -0.5050482E-02  0.0000000E+00 -0.5050505E-02 -0.4458385E-08  0.0000000E+00  0.1856325E-05
 -0.5050449E-02  0.0000000E+00 -0.5050505E-02 -0.4789784E-08  0.0000000E+00  0.1847024E-05
 -0.5050376E-02  0.0000000E+00 -0.5050505E-02 -0.5101660E-08  0.0000000E+00  0.1837076E-05
 -0.5050299E-02  0.0000000E+00 -0.5050505E-02 -0.5392747E-08  0.0000000E+00  0.1826521E-05
 -0.5050178E-02  0.0000000E+00 -0.5050505E-02 -0.5661878E-08  0.0000000E+00  0.1815403E-05
 -0.5050018E-02  0.0000000E+00 -0.5050505E-02 -0.5907992E-08  0.0000000E+00  0.1803767E-05
 -0.5049710E-02  0.0000000E+00 -0.5050505E-02 -0.6130138E-08  0.0000000E+00  0.1791660E-05
 -0.5049253E-02  0.0000000E+00 -0.5050505E-02 -0.6327472E-08  0.0000000E+00  0.1779131E-05
 -0.5048636E-02  0.0000000E+00 -0.5050505E-02 -0.6499267E-08  0.0000000E+00  0.1766231E-05
 -0.5047442E-02  0.0000000E+00 -0.5050505E-02 -0.6644906E-08  0.0000000E+00  0.1753012E-05
 -0.5045727E-02  0.0000000E+00 -0.5050505E-02 -0.6763889E-08  0.0000000E+00  0.1739526E-05
 -0.5043261E-02  0.0000000E+00 -0.5050505E-02 -0.6855825E-08  0.0000000E+00  0.1725829E-05
 -0.5038714E-02  0.0000000E+00 -0.5050505E-02 -0.6920438E-08  0.0000000E+00  0.1711974E-05
 -0.5032318E-02  0.0000000E+00 -0.5050505E-02 -0.6957556E-08  0.0000000E+00  0.1698016E-05
 -0.5022454E-02  0.0000000E+00 -0.5050505E-02 -0.6967116E-08  0.0000000E+00  0.1684012E-05
 -0.5012589E-02  0.0000000E+00 -0.5050505E-02 -0.6949152E-08  0.0000000E+00  0.1670016E-05
 -0.5002725E-02  0.0000000E+00 -0.5050505E-02 -0.6903793E-08  0.0000000E+00  0.1656084E-05
 -0.4992860E-02  0.0000000E+00 -0.5050505E-02 -0.6831255E-08  0.0000000E+00  0.1642271E-05
 -0.4976523E-02  0.0000000E+00 -0.5050505E-02 -0.6731827E-08  0.0000000E+00  0.1628630E-05
 -0.4956794E-02  0.0000000E+00 -0.5050505E-02 -0.6605864E-08  0.0000000E+00  0.1615216E-05
 -0.4937066E-02  0.0000000E+00 -0.5050505E-02 -0.6453767E-08  0.0000000E+00  0.1602082E-05
 -0.4906239E-02  0.0000000E+00 -0.5050505E-02 -0.6275956E-08  0.0000000E+00  0.1589280E-05
 -0.4866782E-02  0.0000000E+00 -0.5050505E-02 -0.6072846E-08  0.0000000E+00  0.1576860E-05
 -0.4827325E-02  0.0000000E+00 -0.5050505E-02 -0.5844789E-08  0.0000000E+00  0.1564874E-05
 -0.4769372E-02  0.0000000E+00 -0.5050505E-02 -0.5592013E-08  0.0000000E+00  0.1553372E-05
 -0.4690458E-02  0.0000000E+00 -0.5050505E-02 -0.5314505E-08  0.0000000E+00  0.1542403E-05
 -0.4611543E-02  0.0000000E+00 -0.5050505E-02 -0.5011838E-08  0.0000000E+00  0.1532018E-05
 -0.4503035E-02  0.0000000E+00 -0.5050505E-02 -0.4682877E-08  0.0000000E+00  0.1522268E-05
 -0.4345206E-02  0.0000000E+00 -0.5050505E-02 -0.4325266E-08  0.0000000E+00  0.1513208E-05
 -0.4187378E-02  0.0000000E+00 -0.5050505E-02 -0.3934501E-08  0.0000000E+00  0.1504902E-05
 -0.3985156E-02  0.0000000E+00 -0.5050505E-02 -0.3502162E-08  0.0000000E+00  0.1497422E-05
 -0.3669499E-02  0.0000000E+00 -0.5050505E-02 -0.3012339E-08  0.0000000E+00  0.1490871E-05
 -0.3353842E-02  0.0000000E+00 -0.5050505E-02 -0.2433917E-08  0.0000000E+00  0.1485393E-05
 -0.2978990E-02  0.0000000E+00 -0.5050505E-02 -0.1702682E-08  0.0000000E+00  0.1481233E-05
 -0.2347676E-02  0.0000000E+00 -0.5050505E-02 -0.6761275E-09  0.0000000E+00  0.1478841E-05
 -0.1716362E-02  0.0000000E+00 -0.5050505E-02  0.9913973E-09  0.0000000E+00  0.1479158E-05
 -0.1025842E-02  0.0000000E+00 -0.5050505E-02  0.4227281E-08  0.0000000E+00  0.1484406E-05
  0.2367855E-03  0.0000000E+00 -0.5050505E-02  0.1179773E-07  0.0000000E+00  0.1500523E-05
  0.1499413E-02  0.0000000E+00 -0.5050505E-02  0.3284409E-07  0.0000000E+00  0.1545420E-05
  0.5287294E-02  0.0000000E+00 -0.5050505E-02  0.5453622E-06  0.0000000E+00  0.1234621E-05
 -0.5050505E-02  0.0000000E+00 -0.5050505E-02  0.6122607E-09  0.0000000E+00  0.1505098E-05
 -0.5050505E-02  0.0000000E+00 -0.5050505E-02  0.1834347E-08  0.0000000E+00  0.1505923E-05
 -0.5050505E-02  0.0000000E+00 -0.5050505E-02  0.3049419E-08  0.0000000E+00  0.1507570E-05
 -0.5050505E-02  0.0000000E+00 -0.5050505E-02  0.4252864E-08  0.0000000E+00  0.1510032E-05
 -0.5050505E-02  0.0000000E+00 -0.5050505E-02  0.5440055E-08  0.0000000E+00  0.1513301E-05
 -0.5050505E-02  0.0000000E+00 -0.5050505E-02  0.6606425E-08  0.0000000E+00  0.1517363E-05
 -0.5050504E-02  0.0000000E+00 -0.5050505E-02  0.7747466E-08  0.0000000E+00  0.1522203E-05
 -0.5050501E-02  0.0000000E+00 -0.5050505E-02  0.8858739E-08  0.0000000E+00  0.1527803E-05
 -0.5050495E-02  0.0000000E+00 -0.5050505E-02  0.9935893E-08  0.0000000E+00  0.1534141E-05
 -0.5050482E-02  0.0000000E+00 -0.5050505E-02  0.1097468E-07  0.0000000E+00  0.1541193E-05
 -0.5050449E-02  0.0000000E+00 -0.5050505E-02  0.1197094E-07  0.0000000E+00  0.1548930E-05
 -0.5050376E-02  0.0000000E+00 -0.5050505E-02  0.1292069E-07  0.0000000E+00  0.1557325E-05
 -0.5050299E-02  0.0000000E+00 -0.5050505E-02  0.1382003E-07  0.0000000E+00  0.1566342E-05
 -0.5050178E-02  0.0000000E+00 -0.5050505E-02  0.1466526E-07  0.0000000E+00  0.1575949E-05
 -0.5050018E-02  0.0000000E+00 -0.5050505E-02  0.1545283E-07  0.0000000E+00  0.1586106E-05
 -0.5049710E-02  0.0000000E+00 -0.5050505E-02  0.1617938E-07  0.0000000E+00  0.1596773E-05
 -0.5049253E-02  0.0000000E+00 -0.5050505E-02  0.1684174E-07  0.0000000E+00  0.1607910E-05
 -0.5048636E-02  0.0000000E+00 -0.5050505E-02  0.1743697E-07  0.0000000E+00  0.1619470E-05
 -0.5047442E-02  0.0000000E+00 -0.5050505E-02  0.1796236E-07  0.0000000E+00  0.1631409E-05
 -0.5045727E-02  0.0000000E+00 -0.5050505E-02  0.1841543E-07  0.0000000E+00  0.1643678E-05
 -0.5043261E-02  0.0000000E+00 -0.5050505E-02  0.1879396E-07  0.0000000E+00  0.1656227E-05
 -0.5038714E-02  0.0000000E+00 -0.5050505E-02  0.1909601E-07  0.0000000E+00  0.1669006E-05
 -0.5032318E-02  0.0000000E+00 -0.5050505E-02  0.1931994E-07  0.0000000E+00  0.1681963E-05
 -0.5022454E-02  0.0000000E+00 -0.5050505E-02  0.1946436E-07  0.0000000E+00  0.1695044E-05
 -0.5012589E-02  0.0000000E+00 -0.5050505E-02  0.1952825E-07  0.0000000E+00  0.1708196E-05
 -0.5002725E-02  0.0000000E+00 -0.5050505E-02  0.1951086E-07  0.0000000E+00  0.1721363E-05
 -0.4992860E-02  0.0000000E+00 -0.5050505E-02  0.1941180E-07  0.0000000E+00  0.1734492E-05
 -0.4976523E-02  0.0000000E+00 -0.5050505E-02  0.1923101E-07  0.0000000E+00  0.1747526E-05
 -0.4956794E-02  0.0000000E+00 -0.5050505E-02  0.1896877E-07  0.0000000E+00  0.1760411E-05
 -0.4937066E-02  0.0000000E+00 -0.5050505E-02  0.1862571E-07  0.0000000E+00  0.1773092E-05
 -0.4906239E-02  0.0000000E+00 -0.5050505E-02  0.1820284E-07  0.0000000E+00  0.1785515E-05
 -0.4866782E-02  0.0000000E+00 -0.5050505E-02  0.1770148E-07  0.0000000E+00  0.1797627E-05
 -0.4827325E-02  0.0000000E+00 -0.5050505E-02  0.1712336E-07  0.0000000E+00  0.1809374E-05
 -0.4769372E-02  0.0000000E+00 -0.5050505E-02  0.1647052E-07  0.0000000E+00  0.1820707E-05
 -0.4690458E-02  0.0000000E+00 -0.5050505E-02  0.1574537E-07  0.0000000E+00  0.1831574E-05
 -0.4611543E-02  0.0000000E+00 -0.5050505E-02  0.1495067E-07  0.0000000E+00  0.1841930E-05
 -0.4503035E-02  0.0000000E+00 -0.5050505E-02  0.1408951E-07  0.0000000E+00  0.1851727E-05
 -0.4345206E-02  0.0000000E+00 -0.5050505E-02  0.1316530E-07  0.0000000E+00  0.1860921E-05
 -0.4187378E-02  0.0000000E+00 -0.5050505E-02  0.1218177E-07  0.0000000E+00  0.1869472E-05
 -0.3985156E-02  0.0000000E+00 -0.5050505E-02  0.1114294E-07  0.0000000E+00  0.1877342E-05
 -0.3669499E-02  0.0000000E+00 -0.5050505E-02  0.1005312E-07  0.0000000E+00  0.1884493E-05
 -0.3353842E-02  0.0000000E+00 -0.5050505E-02  0.8916870E-08  0.0000000E+00  0.1890893E-05
 -0.2978990E-02  0.0000000E+00 -0.5050505E-02  0.7738997E-08  0.0000000E+00  0.1896513E-05
 -0.2347676E-02  0.0000000E+00 -0.5050505E-02  0.6524519E-08  0.0000000E+00  0.1901326E-05
 -0.1716362E-02  0.0000000E+00 -0.5050505E-02  0.5278648E-08  0.0000000E+00  0.1905308E-05
 -0.1025842E-02  0.0000000E+00 -0.5050505E-02  0.4006759E-08  0.0000000E+00  0.1908442E-05
  0.2367855E-03  0.0000000E+00 -0.5050505E-02  0.2714366E-08  0.0000000E+00  0.1910710E-05
  0.1499413E-02  0.0000000E+00 -0.5050505E-02  0.1407089E-08  0.0000000E+00  0.1912102E-05
  0.2762042E-02  0.0000000E+00 -0.5050505E-02  0.9062959E-10  0.0000000E+00  0.1912608E-05
 -0.5050505E-02  0.0000000E+00 -0.5050505E-02 -0.1229265E-08  0.0000000E+00  0.1912225E-05
 -0.5050505E-02  0.0000000E+00 -0.5050505E-02 -0.2546826E-08  0.0000000E+00  0.1910953E-05
 -0.5050505E-02  0.0000000E+00 -0.5050505E-02 -0.3856300E-08  0.0000000E+00  0.1908794E-05
 -0.5050505E-02  0.0000000E+00 -0.5050505E-02 -0.5151977E-08  0.0000000E+00  0.1905756E-05
 -0.5050505E-02  0.0000000E+00 -0.5050505E-02 -0.6428218E-08  0.0000000E+00  0.1901851E-05
 -0.5050505E-02  0.0000000E+00 -0.5050505E-02 -0.7679490E-08  0.0000000E+00  0.1897093E-05
 -0.5050505E-02  0.0000000E+00 -0.5050505E-02 -0.8900390E-08  0.0000000E+00  0.1891502E-05
 -0.5050504E-02  0.0000000E+00 -0.5050505E-02 -0.1008567E-07  0.0000000E+00  0.1885098E-05
 -0.5050501E-02  0.0000000E+00 -0.5050505E-02 -0.1123028E-07  0.0000000E+00  0.1877909E-05
 -0.5050495E-02  0.0000000E+00 -0.5050505E-02 -0.1232936E-07  0.0000000E+00  0.1869963E-05
 -0.5050482E-02  0.0000000E+00 -0.5050505E-02 -0.1337830E-07  0.0000000E+00  0.1861292E-05
 -0.5050449E-02  0.0000000E+00 -0.5050505E-02 -0.1437274E-07  0.0000000E+00  0.1851932E-05
 -0.5050376E-02  0.0000000E+00 -0.5050505E-02 -0.1530858E-07  0.0000000E+00  0.1841921E-05
 -0.5050299E-02  0.0000000E+00 -0.5050505E-02 -0.1618202E-07  0.0000000E+00  0.1831300E-05
 -0.5050178E-02  0.0000000E+00 -0.5050505E-02 -0.1698956E-07  0.0000000E+00  0.1820112E-05
 -0.5050018E-02  0.0000000E+00 -0.5050505E-02 -0.1772802E-07  0.0000000E+00  0.1808403E-05
 -0.5049710E-02  0.0000000E+00 -0.5050505E-02 -0.1839454E-07  0.0000000E+00  0.1796220E-05
 -0.5049253E-02  0.0000000E+00 -0.5050505E-02 -0.1898660E-07  0.0000000E+00  0.1783613E-05
 -0.5048636E-02  0.0000000E+00 -0.5050505E-02 -0.1950202E-07  0.0000000E+00  0.1770632E-05
 -0.5047442E-02  0.0000000E+00 -0.5050505E-02 -0.1993894E-07  0.0000000E+00  0.1757330E-05
 -0.5045727E-02  0.0000000E+00 -0.5050505E-02 -0.2029588E-07  0.0000000E+00  0.1743760E-05
 -0.5043261E-02  0.0000000E+00 -0.5050505E-02 -0.2057165E-07  0.0000000E+00  0.1729977E-05
 -0.5038714E-02  0.0000000E+00 -0.5050505E-02 -0.2076544E-07  0.0000000E+00  0.1716036E-05
 -0.5032318E-02  0.0000000E+00 -0.5050505E-02 -0.2087673E-07  0.0000000E+00  0.1701992E-05
 -0.5022454E-02  0.0000000E+00 -0.5050505E-02 -0.2090534E-07  0.0000000E+00  0.1687901E-05
 -0.5012589E-02  0.0000000E+00 -0.5050505E-02 -0.2085138E-07  0.0000000E+00  0.1673819E-05
 -0.5002725E-02  0.0000000E+00 -0.5050505E-02 -0.2071524E-07  0.0000000E+00  0.1659801E-05
 -0.4992860E-02  0.0000000E+00 -0.5050505E-02 -0.2049758E-07  0.0000000E+00  0.1645902E-05
 -0.4976523E-02  0.0000000E+00 -0.5050505E-02 -0.2019928E-07  0.0000000E+00  0.1632178E-05
 -0.4956794E-02  0.0000000E+00 -0.5050505E-02 -0.1982141E-07  0.0000000E+00  0.1618681E-05
 -0.4937066E-02  0.0000000E+00 -0.5050505E-02 -0.1936521E-07  0.0000000E+00  0.1605465E-05
 -0.4906239E-02  0.0000000E+00 -0.5050505E-02 -0.1883196E-07  0.0000000E+00  0.1592583E-05
 -0.4866782E-02  0.0000000E+00 -0.5050505E-02 -0.1822296E-07  0.0000000E+00  0.1580085E-05
 -0.4827325E-02  0.0000000E+00 -0.5050505E-02 -0.1753933E-07  0.0000000E+00  0.1568023E-05
 -0.4769372E-02  0.0000000E+00 -0.5050505E-02 -0.1678186E-07  0.0000000E+00  0.1556445E-05
 -0.4690458E-02  0.0000000E+00 -0.5050505E-02 -0.1595069E-07  0.0000000E+00  0.1545402E-05
 -0.4611543E-02  0.0000000E+00 -0.5050505E-02 -0.1504483E-07  0.0000000E+00  0.1534942E-05
 -0.4503035E-02  0.0000000E+00 -0.5050505E-02 -0.1406139E-07  0.0000000E+00  0.1525115E-05
 -0.4345206E-02  0.0000000E+00 -0.5050505E-02 -0.1299423E-07  0.0000000E+00  0.1515973E-05
 -0.4187378E-02  0.0000000E+00 -0.5050505E-02 -0.1183162E-07  0.0000000E+00  0.1507573E-05
 -0.3985156E-02  0.0000000E+00 -0.5050505E-02 -0.1055187E-07  0.0000000E+00  0.1499978E-05
 -0.3669499E-02  0.0000000E+00 -0.5050505E-02 -0.9114969E-08  0.0000000E+00  0.1493265E-05
 -0.3353842E-02  0.0000000E+00 -0.5050505E-02 -0.7445481E-08  0.0000000E+00  0.1487534E-05
 -0.2978990E-02  0.0000000E+00 -0.5050505E-02 -0.5395906E-08  0.0000000E+00  0.1482917E-05
 -0.2347676E-02  0.0000000E+00 -0.5050505E-02 -0.2663331E-08  0.0000000E+00  0.1479583E-05
 -0.1716362E-02  0.0000000E+00 -0.5050505E-02  0.1411605E-08  0.0000000E+00  0.1477692E-05
 -0.1025842E-02  0.0000000E+00 -0.5050505E-02  0.8358076E-08  0.0000000E+00  0.1477050E-05
  0.2367855E-03  0.0000000E+00 -0.5050505E-02  0.2195497E-07  0.0000000E+00  0.1475393E-05
  0.1499413E-02  0.0000000E+00 -0.5050505E-02  0.5209363E-07  0.0000000E+00  0.1460324E-05
  0.5287294E-02  0.0000000E+00 -0.5050505E-02  0.1258469E-06  0.0000000E+00  0.1371854E-05
 -0.5050505E-02  0.0000000E+00 -0.5050505E-02  0.1021853E-08  0.0000000E+00  0.1510478E-05
 -0.5050505E-02  0.0000000E+00 -0.5050505E-02  0.3061544E-08  0.0000000E+00  0.1511313E-05
 -0.5050505E-02  0.0000000E+00 -0.5050505E-02  0.5089535E-08  0.0000000E+00  0.1512980E-05
 -0.5050505E-02  0.0000000E+00 -0.5050505E-02  0.7098128E-08  0.0000000E+00  0.1515472E-05
 -0.5050505E-02  0.0000000E+00 -0.5050505E-02  0.9079613E-08  0.0000000E+00  0.1518780E-05
 -0.5050505E-02  0.0000000E+00 -0.5050505E-02  0.1102637E-07  0.0000000E+00  0.1522891E-05
 -0.5050504E-02  0.0000000E+00 -0.5050505E-02  0.1293088E-07  0.0000000E+00  0.1527790E-05
 -0.5050501E-02  0.0000000E+00 -0.5050505E-02  0.1478573E-07  0.0000000E+00  0.1533457E-05
 -0.5050495E-02  0.0000000E+00 -0.5050505E-02  0.1658368E-07  0.0000000E+00  0.1539872E-05
 -0.5050482E-02  0.0000000E+00 -0.5050505E-02  0.1831761E-07  0.0000000E+00  0.1547009E-05
 -0.5050449E-02  0.0000000E+00 -0.5050505E-02  0.1998064E-07  0.0000000E+00  0.1554840E-05
 -0.5050376E-02  0.0000000E+00 -0.5050505E-02  0.2156605E-07  0.0000000E+00  0.1563337E-05
 -0.5050299E-02  0.0000000E+00 -0.5050505E-02  0.2306738E-07  0.0000000E+00  0.1572464E-05
 -0.5050178E-02  0.0000000E+00 -0.5050505E-02  0.2447843E-07  0.0000000E+00  0.1582188E-05
 -0.5050018E-02  0.0000000E+00 -0.5050505E-02  0.2579329E-07  0.0000000E+00  0.1592469E-05
 -0.5049710E-02  0.0000000E+00 -0.5050505E-02  0.2700633E-07  0.0000000E+00  0.1603268E-05
 -0.5049253E-02  0.0000000E+00 -0.5050505E-02  0.2811228E-07  0.0000000E+00  0.1614541E-05
 -0.5048636E-02  0.0000000E+00 -0.5050505E-02  0.2910622E-07  0.0000000E+00  0.1626245E-05
 -0.5047442E-02  0.0000000E+00 -0.5050505E-02  0.2998360E-07  0.0000000E+00  0.1638331E-05
 -0.5045727E-02  0.0000000E+00 -0.5050505E-02  0.3074031E-07  0.0000000E+00  0.1650753E-05
 -0.5043261E-02  0.0000000E+00 -0.5050505E-02  0.3137262E-07  0.0000000E+00  0.1663459E-05
 -0.5038714E-02  0.0000000E+00 -0.5050505E-02  0.3187731E-07  0.0000000E+00  0.1676398E-05
 -0.5032318E-02  0.0000000E+00 -0.5050505E-02  0.3225158E-07  0.0000000E+00  0.1689517E-05
 -0.5022454E-02  0.0000000E+00 -0.5050505E-02  0.3249317E-07  0.0000000E+00  0.1702764E-05
 -0.5012589E-02  0.0000000E+00 -0.5050505E-02  0.3260032E-07  0.0000000E+00  0.1716082E-05
 -0.5002725E-02  0.0000000E+00 -0.5050505E-02  0.3257181E-07  0.0000000E+00  0.1729416E-05
 -0.4992860E-02  0.0000000E+00 -0.5050505E-02  0.3240695E-07  0.0000000E+00  0.1742712E-05
 -0.4976523E-02  0.0000000E+00 -0.5050505E-02  0.3210564E-07  0.0000000E+00  0.1755913E-05
 -0.4956794E-02  0.0000000E+00 -0.5050505E-02  0.3166834E-07  0.0000000E+00  0.1768964E-05
 -0.4937066E-02  0.0000000E+00 -0.5050505E-02  0.3109612E-07  0.0000000E+00  0.1781808E-05
 -0.4906239E-02  0.0000000E+00 -0.5050505E-02  0.3039061E-07  0.0000000E+00  0.1794392E-05
 -0.4866782E-02  0.0000000E+00 -0.5050505E-02  0.2955406E-07  0.0000000E+00  0.1806661E-05
 -0.4827325E-02  0.0000000E+00 -0.5050505E-02  0.2858931E-07  0.0000000E+00  0.1818561E-05
 -0.4769372E-02  0.0000000E+00 -0.5050505E-02  0.2749978E-07  0.0000000E+00  0.1830042E-05
 -0.4690458E-02  0.0000000E+00 -0.5050505E-02  0.2628950E-07  0.0000000E+00  0.1841053E-05
 -0.4611543E-02  0.0000000E+00 -0.5050505E-02  0.2496306E-07  0.0000000E+00  0.1851545E-05
 -0.4503035E-02  0.0000000E+00 -0.5050505E-02  0.2352562E-07  0.0000000E+00  0.1861471E-05
 -0.4345206E-02  0.0000000E+00 -0.5050505E-02  0.2198286E-07  0.0000000E+00  0.1870788E-05
 -0.4187378E-02  0.0000000E+00 -0.5050505E-02  0.2034102E-07  0.0000000E+00  0.1879453E-05
 -0.3985156E-02  0.0000000E+00 -0.5050505E-02  0.1860681E-07  0.0000000E+00  0.1887428E-05
 -0.3669499E-02  0.0000000E+00 -0.5050505E-02  0.1678742E-07  0.0000000E+00  0.1894676E-05
 -0.3353842E-02  0.0000000E+00 -0.5050505E-02  0.1489048E-07  0.0000000E+00  0.1901163E-05
 -0.2978990E-02  0.0000000E+00 -0.5050505E-02  0.1292400E-07  0.0000000E+00  0.1906860E-05
 -0.2347676E-02  0.0000000E+00 -0.5050505E-02  0.1089637E-07  0.0000000E+00  0.1911739E-05
 -0.1716362E-02  0.0000000E+00 -0.5050505E-02  0.8816293E-08  0.0000000E+00  0.1915777E-05
 -0.1025842E-02  0.0000000E+00 -0.5050505E-02  0.6692753E-08  0.0000000E+00  0.1918955E-05
  0.2367855E-03  0.0000000E+00 -0.5050505E-02  0.4534958E-08  0.0000000E+00  0.1921257E-05
  0.1499413E-02  0.0000000E+00 -0.5050505E-02  0.2352298E-08  0.0000000E+00  0.1922670E-05
  0.2762042E-02  0.0000000E+00 -0.5050505E-02  0.1542973E-09  0.0000000E+00  0.1923187E-05
 -0.5050505E-02  0.0000000E+00 -0.5050505E-02 -0.2049441E-08  0.0000000E+00  0.1922803E-05
 -0.5050505E-02  0.0000000E+00 -0.5050505E-02 -0.4249281E-08  0.0000000E+00  0.1921517E-05
 -0.5050505E-02  0.0000000E+00 -0.5050505E-02 -0.6435608E-08  0.0000000E+00  0.1919333E-05
 -0.5050505E-02  0.0000000E+00 -0.5050505E-02 -0.8598884E-08  0.0000000E+00  0.1916260E-05
 -0.5050505E-02  0.0000000E+00 -0.5050505E-02 -0.1072969E-07  0.0000000E+00  0.1912307E-05
 -0.5050505E-02  0.0000000E+00 -0.5050505E-02 -0.1281878E-07  0.0000000E+00  0.1907490E-05
 -0.5050505E-02  0.0000000E+00 -0.5050505E-02 -0.1485713E-07  0.0000000E+00  0.1901829E-05
 -0.5050504E-02  0.0000000E+00 -0.5050505E-02 -0.1683599E-07  0.0000000E+00  0.1895346E-05
 -0.5050501E-02  0.0000000E+00 -0.5050505E-02 -0.1874689E-07  0.0000000E+00  0.1888067E-05
 -0.5050495E-02  0.0000000E+00 -0.5050505E-02 -0.2058175E-07  0.0000000E+00  0.1880021E-05
 -0.5050482E-02  0.0000000E+00 -0.5050505E-02 -0.2233285E-07  0.0000000E+00  0.1871241E-05
 -0.5050449E-02  0.0000000E+00 -0.5050505E-02 -0.2399290E-07  0.0000000E+00  0.1861764E-05
 -0.5050376E-02  0.0000000E+00 -0.5050505E-02 -0.2555509E-07  0.0000000E+00  0.1851627E-05
 -0.5050299E-02  0.0000000E+00 -0.5050505E-02 -0.2701306E-07  0.0000000E+00  0.1840873E-05
 -0.5050178E-02  0.0000000E+00 -0.5050505E-02 -0.2836097E-07  0.0000000E+00  0.1829544E-05
 -0.5050018E-02  0.0000000E+00 -0.5050505E-02 -0.2959351E-07  0.0000000E+00  0.1817688E-05
 -0.5049710E-02  0.0000000E+00 -0.5050505E-02 -0.3070593E-07  0.0000000E+00  0.1805353E-05
 -0.5049253E-02  0.0000000E+00 -0.5050505E-02 -0.3169401E-07  0.0000000E+00  0.1792588E-05
 -0.5048636E-02  0.0000000E+00 -0.5050505E-02 -0.3255411E-07  0.0000000E+00  0.1779445E-05
 -0.5047442E-02  0.0000000E+00 -0.5050505E-02 -0.3328316E-07  0.0000000E+00  0.1765977E-05
 -0.5045727E-02  0.0000000E+00 -0.5050505E-02 -0.3387867E-07  0.0000000E+00  0.1752239E-05
 -0.5043261E-02  0.0000000E+00 -0.5050505E-02 -0.3433869E-07  0.0000000E+00  0.1738286E-05
 -0.5038714E-02  0.0000000E+00 -0.5050505E-02 -0.3466187E-07  0.0000000E+00  0.1724172E-05
 -0.5032318E-02  0.0000000E+00 -0.5050505E-02 -0.3484735E-07  0.0000000E+00  0.1709955E-05
 -0.5022454E-02  0.0000000E+00 -0.5050505E-02 -0.3489485E-07  0.0000000E+00  0.1695691E-05
 -0.5012589E-02  0.0000000E+00 -0.5050505E-02 -0.3480458E-07  0.0000000E+00  0.1681436E-05
 -0.5002725E-02  0.0000000E+00 -0.5050505E-02 -0.3457720E-07  0.0000000E+00  0.1667245E-05
 -0.4992860E-02  0.0000000E+00 -0.5050505E-02 -0.3421385E-07  0.0000000E+00  0.1653176E-05
 -0.4976523E-02  0.0000000E+00 -0.5050505E-02 -0.3371604E-07  0.0000000E+00  0.1639283E-05
 -0.4956794E-02  0.0000000E+00 -0.5050505E-02 -0.3308561E-07  0.0000000E+00  0.1625620E-05
 -0.4937066E-02  0.0000000E+00 -0.5050505E-02 -0.3232468E-07  0.0000000E+00  0.1612242E-05
 -0.4906239E-02  0.0000000E+00 -0.5050505E-02 -0.3143551E-07  0.0000000E+00  0.1599200E-05
 -0.4866782E-02  0.0000000E+00 -0.5050505E-02 -0.3042038E-07  0.0000000E+00  0.1586546E-05
 -0.4827325E-02  0.0000000E+00 -0.5050505E-02 -0.2928140E-07  0.0000000E+00  0.1574331E-05
 -0.4769372E-02  0.0000000E+00 -0.5050505E-02 -0.2802021E-07  0.0000000E+00  0.1562603E-05
 -0.4690458E-02  0.0000000E+00 -0.5050505E-02 -0.2663758E-07  0.0000000E+00  0.1551412E-05
 -0.4611543E-02  0.0000000E+00 -0.5050505E-02 -0.2513274E-07  0.0000000E+00  0.1540804E-05
 -0.4503035E-02  0.0000000E+00 -0.5050505E-02 -0.2350236E-07  0.0000000E+00  0.1530826E-05
 -0.4345206E-02  0.0000000E+00 -0.5050505E-02 -0.2173887E-07  0.0000000E+00  0.1521526E-05
 -0.4187378E-02  0.0000000E+00 -0.5050505E-02 -0.1982765E-07  0.0000000E+00  0.1512951E-05
 -0.3985156E-02  0.0000000E+00 -0.5050505E-02 -0.1774212E-07  0.0000000E+00  0.1505146E-05
 -0.3669499E-02  0.0000000E+00 -0.5050505E-02 -0.1543519E-07  0.0000000E+00  0.1498161E-05
 -0.3353842E-02  0.0000000E+00 -0.5050505E-02 -0.1282360E-07  0.0000000E+00  0.1492033E-05
 -0.2978990E-02  0.0000000E+00 -0.5050505E-02 -0.9759565E-08  0.0000000E+00  0.1486781E-05
 -0.2347676E-02  0.0000000E+00 -0.5050505E-02 -0.5979867E-08  0.0000000E+00  0.1482346E-05
 -0.1716362E-02  0.0000000E+00 -0.5050505E-02 -0.1022110E-08  0.0000000E+00  0.1478447E-05
 -0.1025842E-02  0.0000000E+00 -0.5050505E-02  0.5872778E-08  0.0000000E+00  0.1474197E-05
  0.2367855E-03  0.0000000E+00 -0.5050505E-02  0.1565867E-07  0.0000000E+00  0.1467193E-05
  0.1499413E-02  0.0000000E+00 -0.5050505E-02  0.2798945E-07  0.0000000E+00  0.1452107E-05
  0.5287294E-02  0.0000000E+00 -0.5050505E-02  0.3259398E-07  0.0000000E+00  0.1423557E-05
 -0.5050505E-02  0.0000000E+00 -0.5050505E-02  0.1435324E-08  0.0000000E+00  0.1518563E-05
 -0.5050505E-02  0.0000000E+00 -0.5050505E-02  0.4300378E-08  0.0000000E+00  0.1519413E-05
 -0.5050505E-02  0.0000000E+00 -0.5050505E-02  0.7149018E-08  0.0000000E+00  0.1521109E-05
 -0.5050505E-02  0.0000000E+00 -0.5050505E-02  0.9970434E-08  0.0000000E+00  0.1523645E-05
 -0.5050505E-02  0.0000000E+00 -0.5050505E-02  0.1275381E-07  0.0000000E+00  0.1527012E-05
 -0.5050505E-02  0.0000000E+00 -0.5050505E-02  0.1548845E-07  0.0000000E+00  0.1531197E-05
 -0.5050504E-02  0.0000000E+00 -0.5050505E-02  0.1816381E-07  0.0000000E+00  0.1536184E-05
 -0.5050501E-02  0.0000000E+00 -0.5050505E-02  0.2076949E-07  0.0000000E+00  0.1541953E-05
 -0.5050495E-02  0.0000000E+00 -0.5050505E-02  0.2329530E-07  0.0000000E+00  0.1548482E-05
 -0.5050482E-02  0.0000000E+00 -0.5050505E-02  0.2573128E-07  0.0000000E+00  0.1555748E-05
 -0.5050449E-02  0.0000000E+00 -0.5050505E-02  0.2806773E-07  0.0000000E+00  0.1563721E-05
 -0.5050376E-02  0.0000000E+00 -0.5050505E-02  0.3029524E-07  0.0000000E+00  0.1572370E-05
 -0.5050299E-02  0.0000000E+00 -0.5050505E-02  0.3240474E-07  0.0000000E+00  0.1581663E-05
 -0.5050178E-02  0.0000000E+00 -0.5050505E-02  0.3438751E-07  0.0000000E+00  0.1591563E-05
 -0.5050018E-02  0.0000000E+00 -0.5050505E-02  0.3623524E-07  0.0000000E+00  0.1602032E-05
 -0.5049710E-02  0.0000000E+00 -0.5050505E-02  0.3794003E-07  0.0000000E+00  0.1613028E-05
 -0.5049253E-02  0.0000000E+00 -0.5050505E-02  0.3949446E-07  0.0000000E+00  0.1624508E-05
 -0.5048636E-02  0.0000000E+00 -0.5050505E-02  0.4089161E-07  0.0000000E+00  0.1636426E-05
 -0.5047442E-02  0.0000000E+00 -0.5050505E-02  0.4212511E-07  0.0000000E+00  0.1648735E-05
 -0.5045727E-02  0.0000000E+00 -0.5050505E-02  0.4318912E-07  0.0000000E+00  0.1661386E-05
 -0.5043261E-02  0.0000000E+00 -0.5050505E-02  0.4407845E-07  0.0000000E+00  0.1674328E-05
 -0.5038714E-02  0.0000000E+00 -0.5050505E-02  0.4478850E-07  0.0000000E+00  0.1687508E-05
 -0.5032318E-02  0.0000000E+00 -0.5050505E-02  0.4531538E-07  0.0000000E+00  0.1700872E-05
 -0.5022454E-02  0.0000000E+00 -0.5050505E-02  0.4565588E-07  0.0000000E+00  0.1714367E-05
 -0.5012589E-02  0.0000000E+00 -0.5050505E-02  0.4580749E-07  0.0000000E+00  0.1727935E-05
 -0.5002725E-02  0.0000000E+00 -0.5050505E-02  0.4576850E-07  0.0000000E+00  0.1741522E-05
 -0.4992860E-02  0.0000000E+00 -0.5050505E-02  0.4553792E-07  0.0000000E+00  0.1755069E-05
 -0.4976523E-02  0.0000000E+00 -0.5050505E-02  0.4511561E-07  0.0000000E+00  0.1768522E-05
 -0.4956794E-02  0.0000000E+00 -0.5050505E-02  0.4450219E-07  0.0000000E+00  0.1781821E-05
 -0.4937066E-02  0.0000000E+00 -0.5050505E-02  0.4369913E-07  0.0000000E+00  0.1794912E-05