title = "dataset feddes"
variables = "x", "y", "z", "vx", "vy", "vz"
zone t = "velocities, solution time =  1.100E+01 days        " i =   99, j =   99, k =    1,  f=point
 -0.5050505E-02  0.0000000E+00 -0.5050505E-02 -0.5218491E-14  0.0000000E+00 -0.1138197E-09
 -0.5050505E-02  0.0000000E+00 -0.5050505E-02 -0.3111600E-14  0.0000000E+00 -0.1138280E-09
 -0.5050505E-02  0.0000000E+00 -0.5050505E-02 -0.1192155E-14  0.0000000E+00 -0.1138323E-09
 -0.5050505E-02  0.0000000E+00 -0.5050505E-02 -0.8397571E-15  0.0000000E+00 -0.1138343E-09
 -0.5050505E-02  0.0000000E+00 -0.5050505E-02 -0.5623374E-15  0.0000000E+00 -0.1138357E-09
 -0.5050505E-02  0.0000000E+00 -0.5050505E-02 -0.2399306E-15  0.0000000E+00 -0.1138365E-09
 -0.5050504E-02  0.0000000E+00 -0.5050505E-02  0.8997398E-16  0.0000000E+00 -0.1138367E-09
 -0.5050501E-02  0.0000000E+00 -0.5050505E-02  0.3149089E-15  0.0000000E+00 -0.1138363E-09
 -0.5050495E-02  0.0000000E+00 -0.5050505E-02  0.6073243E-15  0.0000000E+00 -0.1138354E-09
 -0.5050482E-02  0.0000000E+00 -0.5050505E-02  0.8547528E-15  0.0000000E+00 -0.1138339E-09
 -0.5050449E-02  0.0000000E+00 -0.5050505E-02  0.1042199E-14  0.0000000E+00 -0.1138320E-09
 -0.5050376E-02  0.0000000E+00 -0.5050505E-02  0.1252138E-14  0.0000000E+00 -0.1138297E-09
 -0.5050299E-02  0.0000000E+00 -0.5050505E-02  0.1417090E-14  0.0000000E+00 -0.1138270E-09
 -0.5050178E-02  0.0000000E+00 -0.5050505E-02  0.1582042E-14  0.0000000E+00 -0.1138240E-09
 -0.5050018E-02  0.0000000E+00 -0.5050505E-02  0.1769488E-14  0.0000000E+00 -0.1138207E-09
 -0.5049710E-02  0.0000000E+00 -0.5050505E-02  0.1911947E-14  0.0000000E+00 -0.1138170E-09
 -0.5049253E-02  0.0000000E+00 -0.5050505E-02  0.2031912E-14  0.0000000E+00 -0.1138131E-09
 -0.5048636E-02  0.0000000E+00 -0.5050505E-02  0.2181869E-14  0.0000000E+00 -0.1138089E-09
 -0.5047442E-02  0.0000000E+00 -0.5050505E-02  0.2324328E-14  0.0000000E+00 -0.1138043E-09
 -0.5045727E-02  0.0000000E+00 -0.5050505E-02  0.2459289E-14  0.0000000E+00 -0.1137996E-09
 -0.5043261E-02  0.0000000E+00 -0.5050505E-02  0.2609245E-14  0.0000000E+00 -0.1137945E-09
 -0.5038714E-02  0.0000000E+00 -0.5050505E-02  0.2751704E-14  0.0000000E+00 -0.1137891E-09
 -0.5032318E-02  0.0000000E+00 -0.5050505E-02  0.2879167E-14  0.0000000E+00 -0.1137835E-09
 -0.5022454E-02  0.0000000E+00 -0.5050505E-02  0.2999133E-14  0.0000000E+00 -0.1137776E-09
 -0.5012589E-02  0.0000000E+00 -0.5050505E-02  0.3089107E-14  0.0000000E+00 -0.1137715E-09
 -0.5002725E-02  0.0000000E+00 -0.5050505E-02  0.3171583E-14  0.0000000E+00 -0.1137653E-09
 -0.4992860E-02  0.0000000E+00 -0.5050505E-02  0.3231565E-14  0.0000000E+00 -0.1137589E-09
 -0.4976523E-02  0.0000000E+00 -0.5050505E-02  0.3261557E-14  0.0000000E+00 -0.1137524E-09
 -0.4956794E-02  0.0000000E+00 -0.5050505E-02  0.3269054E-14  0.0000000E+00 -0.1137459E-09
 -0.4937066E-02  0.0000000E+00 -0.5050505E-02  0.3246561E-14  0.0000000E+00 -0.1137393E-09
 -0.4906239E-02  0.0000000E+00 -0.5050505E-02  0.3216570E-14  0.0000000E+00 -0.1137329E-09
 -0.4866782E-02  0.0000000E+00 -0.5050505E-02  0.3171583E-14  0.0000000E+00 -0.1137265E-09
 -0.4827325E-02  0.0000000E+00 -0.5050505E-02  0.3081609E-14  0.0000000E+00 -0.1137202E-09
 -0.4769372E-02  0.0000000E+00 -0.5050505E-02  0.2991635E-14  0.0000000E+00 -0.1137142E-09
 -0.4690458E-02  0.0000000E+00 -0.5050505E-02  0.2886665E-14  0.0000000E+00 -0.1137083E-09
 -0.4611543E-02  0.0000000E+00 -0.5050505E-02  0.2789193E-14  0.0000000E+00 -0.1137026E-09
 -0.4503035E-02  0.0000000E+00 -0.5050505E-02  0.2661730E-14  0.0000000E+00 -0.1136972E-09
 -0.4345206E-02  0.0000000E+00 -0.5050505E-02  0.2571756E-14  0.0000000E+00 -0.1136919E-09
 -0.4187378E-02  0.0000000E+00 -0.5050505E-02  0.2504276E-14  0.0000000E+00 -0.1136868E-09
 -0.3985156E-02  0.0000000E+00 -0.5050505E-02  0.2466787E-14  0.0000000E+00 -0.1136819E-09
 -0.3669499E-02  0.0000000E+00 -0.5050505E-02  0.2436795E-14  0.0000000E+00 -0.1136770E-09
 -0.3353842E-02  0.0000000E+00 -0.5050505E-02  0.2346821E-14  0.0000000E+00 -0.1136722E-09
 -0.2978990E-02  0.0000000E+00 -0.5050505E-02  0.7872723E-15  0.0000000E+00 -0.1136691E-09
 -0.2347676E-02  0.0000000E+00 -0.5050505E-02 -0.4573677E-15  0.0000000E+00 -0.1136687E-09
 -0.1716362E-02  0.0000000E+00 -0.5050505E-02 -0.4798612E-15  0.0000000E+00 -0.1136697E-09
 -0.1025842E-02  0.0000000E+00 -0.5050505E-02 -0.3598959E-15  0.0000000E+00 -0.1136705E-09
  0.2367855E-03  0.0000000E+00 -0.5050505E-02  0.9447268E-15  0.0000000E+00 -0.1136699E-09
  0.1499413E-02  0.0000000E+00 -0.5050505E-02  0.1649523E-14  0.0000000E+00 -0.1136673E-09
  0.2762042E-02  0.0000000E+00 -0.5050505E-02  0.8772463E-15  0.0000000E+00 -0.1136648E-09
 -0.5050505E-02  0.0000000E+00 -0.5050505E-02 -0.1282129E-14  0.0000000E+00 -0.1136652E-09
 -0.5050505E-02  0.0000000E+00 -0.5050505E-02 -0.2774198E-14  0.0000000E+00 -0.1136693E-09
 -0.5050505E-02  0.0000000E+00 -0.5050505E-02 -0.2729211E-14  0.0000000E+00 -0.1136748E-09
 -0.5050505E-02  0.0000000E+00 -0.5050505E-02 -0.1364605E-14  0.0000000E+00 -0.1136789E-09
 -0.5050505E-02  0.0000000E+00 -0.5050505E-02 -0.6972983E-15  0.0000000E+00 -0.1136809E-09
 -0.5050505E-02  0.0000000E+00 -0.5050505E-02 -0.1469575E-14  0.0000000E+00 -0.1136831E-09
 -0.5050505E-02  0.0000000E+00 -0.5050505E-02 -0.3051617E-14  0.0000000E+00 -0.1136876E-09
 -0.5050504E-02  0.0000000E+00 -0.5050505E-02 -0.2376813E-14  0.0000000E+00 -0.1136930E-09
 -0.5050501E-02  0.0000000E+00 -0.5050505E-02 -0.2691721E-14  0.0000000E+00 -0.1136981E-09
 -0.5050495E-02  0.0000000E+00 -0.5050505E-02 -0.3044120E-14  0.0000000E+00 -0.1137038E-09
 -0.5050482E-02  0.0000000E+00 -0.5050505E-02 -0.3351531E-14  0.0000000E+00 -0.1137102E-09
 -0.5050449E-02  0.0000000E+00 -0.5050505E-02 -0.3568968E-14  0.0000000E+00 -0.1137171E-09
 -0.5050376E-02  0.0000000E+00 -0.5050505E-02 -0.3763911E-14  0.0000000E+00 -0.1137245E-09
 -0.5050299E-02  0.0000000E+00 -0.5050505E-02 -0.3898872E-14  0.0000000E+00 -0.1137321E-09
 -0.5050178E-02  0.0000000E+00 -0.5050505E-02 -0.4041331E-14  0.0000000E+00 -0.1137401E-09
 -0.5050018E-02  0.0000000E+00 -0.5050505E-02 -0.4168794E-14  0.0000000E+00 -0.1137483E-09
 -0.5049710E-02  0.0000000E+00 -0.5050505E-02 -0.4258768E-14  0.0000000E+00 -0.1137567E-09
 -0.5049253E-02  0.0000000E+00 -0.5050505E-02 -0.4371236E-14  0.0000000E+00 -0.1137654E-09
 -0.5048636E-02  0.0000000E+00 -0.5050505E-02 -0.4446214E-14  0.0000000E+00 -0.1137742E-09
 -0.5047442E-02  0.0000000E+00 -0.5050505E-02 -0.4536188E-14  0.0000000E+00 -0.1137832E-09
 -0.5045727E-02  0.0000000E+00 -0.5050505E-02 -0.4603668E-14  0.0000000E+00 -0.1137923E-09
 -0.5043261E-02  0.0000000E+00 -0.5050505E-02 -0.4693642E-14  0.0000000E+00 -0.1138016E-09
 -0.5038714E-02  0.0000000E+00 -0.5050505E-02 -0.4783616E-14  0.0000000E+00 -0.1138111E-09
 -0.5032318E-02  0.0000000E+00 -0.5050505E-02 -0.4873590E-14  0.0000000E+00 -0.1138207E-09
 -0.5022454E-02  0.0000000E+00 -0.5050505E-02 -0.4986058E-14  0.0000000E+00 -0.1138306E-09
 -0.5012589E-02  0.0000000E+00 -0.5050505E-02 -0.5113521E-14  0.0000000E+00 -0.1138407E-09
 -0.5002725E-02  0.0000000E+00 -0.5050505E-02 -0.5270975E-14  0.0000000E+00 -0.1138511E-09
 -0.4992860E-02  0.0000000E+00 -0.5050505E-02 -0.5465919E-14  0.0000000E+00 -0.1138618E-09
 -0.4976523E-02  0.0000000E+00 -0.5050505E-02 -0.5698352E-14  0.0000000E+00 -0.1138730E-09
 -0.4956794E-02  0.0000000E+00 -0.5050505E-02 -0.5983269E-14  0.0000000E+00 -0.1138847E-09
 -0.4937066E-02  0.0000000E+00 -0.5050505E-02 -0.6343165E-14  0.0000000E+00 -0.1138970E-09
 -0.4906239E-02  0.0000000E+00 -0.5050505E-02 -0.6785537E-14  0.0000000E+00 -0.1139101E-09
 -0.4866782E-02  0.0000000E+00 -0.5050505E-02 -0.7370368E-14  0.0000000E+00 -0.1139243E-09
 -0.4827325E-02  0.0000000E+00 -0.5050505E-02 -0.8082662E-14  0.0000000E+00 -0.1139397E-09
 -0.4769372E-02  0.0000000E+00 -0.5050505E-02 -0.9019891E-14  0.0000000E+00 -0.1139568E-09
 -0.4690458E-02  0.0000000E+00 -0.5050505E-02 -0.1026453E-13  0.0000000E+00 -0.1139761E-09
 -0.4611543E-02  0.0000000E+00 -0.5050505E-02 -0.1192905E-13  0.0000000E+00 -0.1139983E-09
 -0.4503035E-02  0.0000000E+00 -0.5050505E-02 -0.1422339E-13  0.0000000E+00 -0.1140244E-09
 -0.4345206E-02  0.0000000E+00 -0.5050505E-02 -0.1736498E-13  0.0000000E+00 -0.1140560E-09
 -0.4187378E-02  0.0000000E+00 -0.5050505E-02 -0.2189367E-13  0.0000000E+00 -0.1140953E-09
 -0.3985156E-02  0.0000000E+00 -0.5050505E-02 -0.2855174E-13  0.0000000E+00 -0.1141457E-09
 -0.3669499E-02  0.0000000E+00 -0.5050505E-02 -0.3869631E-13  0.0000000E+00 -0.1142130E-09
 -0.3353842E-02  0.0000000E+00 -0.5050505E-02 -0.5490662E-13  0.0000000E+00 -0.1143066E-09
 -0.2978990E-02  0.0000000E+00 -0.5050505E-02 -0.8240117E-13  0.0000000E+00 -0.1144439E-09
 -0.2347676E-02  0.0000000E+00 -0.5050505E-02 -0.1324867E-12  0.0000000E+00 -0.1146588E-09
 -0.1716362E-02  0.0000000E+00 -0.5050505E-02 -0.2325677E-12  0.0000000E+00 -0.1150238E-09
 -0.1025842E-02  0.0000000E+00 -0.5050505E-02 -0.4556282E-12  0.0000000E+00 -0.1157120E-09
  0.2367855E-03  0.0000000E+00 -0.5050505E-02 -0.1018828E-11  0.0000000E+00 -0.1171865E-09
  0.1499413E-02  0.0000000E+00 -0.5050505E-02 -0.2637130E-11  0.0000000E+00 -0.1208425E-09
  0.5287294E-02  0.0000000E+00 -0.5050505E-02 -0.4281657E-10  0.0000000E+00 -0.9664338E-10
 -0.5050505E-02  0.0000000E+00 -0.5050505E-02 -0.1235360E-13  0.0000000E+00 -0.1136564E-09
 -0.5050505E-02  0.0000000E+00 -0.5050505E-02 -0.8144200E-14  0.0000000E+00 -0.1136603E-09
 -0.5050505E-02  0.0000000E+00 -0.5050505E-02 -0.3123182E-14  0.0000000E+00 -0.1136630E-09
 -0.5050505E-02  0.0000000E+00 -0.5050505E-02 -0.2189239E-14  0.0000000E+00 -0.1136642E-09
 -0.5050505E-02  0.0000000E+00 -0.5050505E-02 -0.1471933E-14  0.0000000E+00 -0.1136651E-09
 -0.5050505E-02  0.0000000E+00 -0.5050505E-02 -0.5605258E-15  0.0000000E+00 -0.1136655E-09
 -0.5050504E-02  0.0000000E+00 -0.5050505E-02  0.3434679E-15  0.0000000E+00 -0.1136654E-09
 -0.5050501E-02  0.0000000E+00 -0.5050505E-02  0.1090302E-14  0.0000000E+00 -0.1136648E-09
 -0.5050495E-02  0.0000000E+00 -0.5050505E-02  0.1904617E-14  0.0000000E+00 -0.1136637E-09
 -0.5050482E-02  0.0000000E+00 -0.5050505E-02  0.2629210E-14  0.0000000E+00 -0.1136620E-09
 -0.5050449E-02  0.0000000E+00 -0.5050505E-02  0.3241631E-14  0.0000000E+00 -0.1136600E-09
 -0.5050376E-02  0.0000000E+00 -0.5050505E-02  0.3831811E-14  0.0000000E+00 -0.1136575E-09
 -0.5050299E-02  0.0000000E+00 -0.5050505E-02  0.4347182E-14  0.0000000E+00 -0.1136546E-09
 -0.5050178E-02  0.0000000E+00 -0.5050505E-02  0.4847641E-14  0.0000000E+00 -0.1136514E-09
 -0.5050018E-02  0.0000000E+00 -0.5050505E-02  0.5407871E-14  0.0000000E+00 -0.1136478E-09
 -0.5049710E-02  0.0000000E+00 -0.5050505E-02  0.5818736E-14  0.0000000E+00 -0.1136439E-09
 -0.5049253E-02  0.0000000E+00 -0.5050505E-02  0.6229473E-14  0.0000000E+00 -0.1136398E-09
 -0.5048636E-02  0.0000000E+00 -0.5050505E-02  0.6655291E-14  0.0000000E+00 -0.1136353E-09
 -0.5047442E-02  0.0000000E+00 -0.5050505E-02  0.7088522E-14  0.0000000E+00 -0.1136305E-09
 -0.5045727E-02  0.0000000E+00 -0.5050505E-02  0.7521711E-14  0.0000000E+00 -0.1136254E-09
 -0.5043261E-02  0.0000000E+00 -0.5050505E-02  0.7969896E-14  0.0000000E+00 -0.1136201E-09
 -0.5038714E-02  0.0000000E+00 -0.5050505E-02  0.8380760E-14  0.0000000E+00 -0.1136144E-09
 -0.5032318E-02  0.0000000E+00 -0.5050505E-02  0.8784084E-14  0.0000000E+00 -0.1136085E-09
 -0.5022454E-02  0.0000000E+00 -0.5050505E-02  0.9127721E-14  0.0000000E+00 -0.1136023E-09
 -0.5012589E-02  0.0000000E+00 -0.5050505E-02  0.9418999E-14  0.0000000E+00 -0.1135959E-09
 -0.5002725E-02  0.0000000E+00 -0.5050505E-02  0.9665500E-14  0.0000000E+00 -0.1135893E-09
 -0.4992860E-02  0.0000000E+00 -0.5050505E-02  0.9829863E-14  0.0000000E+00 -0.1135826E-09
 -0.4976523E-02  0.0000000E+00 -0.5050505E-02  0.9934411E-14  0.0000000E+00 -0.1135757E-09
 -0.4956794E-02  0.0000000E+00 -0.5050505E-02  0.9949365E-14  0.0000000E+00 -0.1135689E-09
 -0.4937066E-02  0.0000000E+00 -0.5050505E-02  0.9889593E-14  0.0000000E+00 -0.1135620E-09
 -0.4906239E-02  0.0000000E+00 -0.5050505E-02  0.9814867E-14  0.0000000E+00 -0.1135552E-09
 -0.4866782E-02  0.0000000E+00 -0.5050505E-02  0.9635678E-14  0.0000000E+00 -0.1135485E-09
 -0.4827325E-02  0.0000000E+00 -0.5050505E-02  0.9381678E-14  0.0000000E+00 -0.1135420E-09
 -0.4769372E-02  0.0000000E+00 -0.5050505E-02  0.9120223E-14  0.0000000E+00 -0.1135356E-09
 -0.4690458E-02  0.0000000E+00 -0.5050505E-02  0.8791582E-14  0.0000000E+00 -0.1135294E-09
 -0.4611543E-02  0.0000000E+00 -0.5050505E-02  0.8477895E-14  0.0000000E+00 -0.1135234E-09
 -0.4503035E-02  0.0000000E+00 -0.5050505E-02  0.8119305E-14  0.0000000E+00 -0.1135177E-09
 -0.4345206E-02  0.0000000E+00 -0.5050505E-02  0.7828027E-14  0.0000000E+00 -0.1135122E-09
 -0.4187378E-02  0.0000000E+00 -0.5050505E-02  0.7618888E-14  0.0000000E+00 -0.1135069E-09
 -0.3985156E-02  0.0000000E+00 -0.5050505E-02  0.7536665E-14  0.0000000E+00 -0.1135016E-09
 -0.3669499E-02  0.0000000E+00 -0.5050505E-02  0.7394838E-14  0.0000000E+00 -0.1134965E-09
 -0.3353842E-02  0.0000000E+00 -0.5050505E-02  0.6827699E-14  0.0000000E+00 -0.1134918E-09
 -0.2978990E-02  0.0000000E+00 -0.5050505E-02  0.2412616E-14  0.0000000E+00 -0.1134888E-09
 -0.2347676E-02  0.0000000E+00 -0.5050505E-02 -0.9270770E-15  0.0000000E+00 -0.1134880E-09
 -0.1716362E-02  0.0000000E+00 -0.5050505E-02 -0.1411824E-14  0.0000000E+00 -0.1134885E-09
 -0.1025842E-02  0.0000000E+00 -0.5050505E-02 -0.7848710E-15  0.0000000E+00 -0.1134890E-09
  0.2367855E-03  0.0000000E+00 -0.5050505E-02  0.2913032E-14  0.0000000E+00 -0.1134880E-09
  0.1499413E-02  0.0000000E+00 -0.5050505E-02  0.4736184E-14  0.0000000E+00 -0.1134855E-09
  0.2762042E-02  0.0000000E+00 -0.5050505E-02  0.2256551E-14  0.0000000E+00 -0.1134836E-09
 -0.5050505E-02  0.0000000E+00 -0.5050505E-02 -0.3943815E-14  0.0000000E+00 -0.1134845E-09
 -0.5050505E-02  0.0000000E+00 -0.5050505E-02 -0.8090114E-14  0.0000000E+00 -0.1134884E-09
 -0.5050505E-02  0.0000000E+00 -0.5050505E-02 -0.7851279E-14  0.0000000E+00 -0.1134934E-09
 -0.5050505E-02  0.0000000E+00 -0.5050505E-02 -0.4056114E-14  0.0000000E+00 -0.1134971E-09
 -0.5050505E-02  0.0000000E+00 -0.5050505E-02 -0.2419566E-14  0.0000000E+00 -0.1134995E-09
 -0.5050505E-02  0.0000000E+00 -0.5050505E-02 -0.5100503E-14  0.0000000E+00 -0.1135027E-09
 -0.5050505E-02  0.0000000E+00 -0.5050505E-02 -0.8315344E-14  0.0000000E+00 -0.1135071E-09
 -0.5050504E-02  0.0000000E+00 -0.5050505E-02 -0.7655451E-14  0.0000000E+00 -0.1135122E-09
 -0.5050501E-02  0.0000000E+00 -0.5050505E-02 -0.8149296E-14  0.0000000E+00 -0.1135179E-09
 -0.5050495E-02  0.0000000E+00 -0.5050505E-02 -0.9202531E-14  0.0000000E+00 -0.1135238E-09
 -0.5050482E-02  0.0000000E+00 -0.5050505E-02 -0.1012131E-13  0.0000000E+00 -0.1135304E-09
 -0.5050449E-02  0.0000000E+00 -0.5050505E-02 -0.1080846E-13  0.0000000E+00 -0.1135375E-09
 -0.5050376E-02  0.0000000E+00 -0.5050505E-02 -0.1137618E-13  0.0000000E+00 -0.1135451E-09
 -0.5050299E-02  0.0000000E+00 -0.5050505E-02 -0.1183174E-13  0.0000000E+00 -0.1135530E-09
 -0.5050178E-02  0.0000000E+00 -0.5050505E-02 -0.1224260E-13  0.0000000E+00 -0.1135613E-09
 -0.5050018E-02  0.0000000E+00 -0.5050505E-02 -0.1261611E-13  0.0000000E+00 -0.1135697E-09
 -0.5049710E-02  0.0000000E+00 -0.5050505E-02 -0.1292230E-13  0.0000000E+00 -0.1135785E-09
 -0.5049253E-02  0.0000000E+00 -0.5050505E-02 -0.1320624E-13  0.0000000E+00 -0.1135874E-09
 -0.5048636E-02  0.0000000E+00 -0.5050505E-02 -0.1347507E-13  0.0000000E+00 -0.1135965E-09
 -0.5047442E-02  0.0000000E+00 -0.5050505E-02 -0.1372907E-13  0.0000000E+00 -0.1136058E-09
 -0.5045727E-02  0.0000000E+00 -0.5050505E-02 -0.1393821E-13  0.0000000E+00 -0.1136152E-09
 -0.5043261E-02  0.0000000E+00 -0.5050505E-02 -0.1419221E-13  0.0000000E+00 -0.1136248E-09
 -0.5038714E-02  0.0000000E+00 -0.5050505E-02 -0.1444621E-13  0.0000000E+00 -0.1136345E-09
 -0.5032318E-02  0.0000000E+00 -0.5050505E-02 -0.1473003E-13  0.0000000E+00 -0.1136445E-09
 -0.5022454E-02  0.0000000E+00 -0.5050505E-02 -0.1505126E-13  0.0000000E+00 -0.1136546E-09
 -0.5012589E-02  0.0000000E+00 -0.5050505E-02 -0.1543967E-13  0.0000000E+00 -0.1136649E-09
 -0.5002725E-02  0.0000000E+00 -0.5050505E-02 -0.1588790E-13  0.0000000E+00 -0.1136755E-09
 -0.4992860E-02  0.0000000E+00 -0.5050505E-02 -0.1644817E-13  0.0000000E+00 -0.1136865E-09
 -0.4976523E-02  0.0000000E+00 -0.5050505E-02 -0.1713540E-13  0.0000000E+00 -0.1136978E-09
 -0.4956794E-02  0.0000000E+00 -0.5050505E-02 -0.1796458E-13  0.0000000E+00 -0.1137096E-09
 -0.4937066E-02  0.0000000E+00 -0.5050505E-02 -0.1901786E-13  0.0000000E+00 -0.1137220E-09
 -0.4906239E-02  0.0000000E+00 -0.5050505E-02 -0.2031764E-13  0.0000000E+00 -0.1137351E-09
 -0.4866782E-02  0.0000000E+00 -0.5050505E-02 -0.2199100E-13  0.0000000E+00 -0.1137492E-09
 -0.4827325E-02  0.0000000E+00 -0.5050505E-02 -0.2406769E-13  0.0000000E+00 -0.1137644E-09
 -0.4769372E-02  0.0000000E+00 -0.5050505E-02 -0.2679429E-13  0.0000000E+00 -0.1137812E-09
 -0.4690458E-02  0.0000000E+00 -0.5050505E-02 -0.3039493E-13  0.0000000E+00 -0.1137999E-09
 -0.4611543E-02  0.0000000E+00 -0.5050505E-02 -0.3519084E-13  0.0000000E+00 -0.1138213E-09
 -0.4503035E-02  0.0000000E+00 -0.5050505E-02 -0.4172748E-13  0.0000000E+00 -0.1138460E-09
 -0.4345206E-02  0.0000000E+00 -0.5050505E-02 -0.5070688E-13  0.0000000E+00 -0.1138754E-09
 -0.4187378E-02  0.0000000E+00 -0.5050505E-02 -0.6346667E-13  0.0000000E+00 -0.1139113E-09
 -0.3985156E-02  0.0000000E+00 -0.5050505E-02 -0.8200914E-13  0.0000000E+00 -0.1139562E-09
 -0.3669499E-02  0.0000000E+00 -0.5050505E-02 -0.1097864E-12  0.0000000E+00 -0.1140139E-09
 -0.3353842E-02  0.0000000E+00 -0.5050505E-02 -0.1531430E-12  0.0000000E+00 -0.1140901E-09
 -0.2978990E-02  0.0000000E+00 -0.5050505E-02 -0.2240148E-12  0.0000000E+00 -0.1141934E-09
 -0.2347676E-02  0.0000000E+00 -0.5050505E-02 -0.3465772E-12  0.0000000E+00 -0.1143355E-09
 -0.1716362E-02  0.0000000E+00 -0.5050505E-02 -0.5730175E-12  0.0000000E+00 -0.1145270E-09
 -0.1025842E-02  0.0000000E+00 -0.5050505E-02 -0.1023552E-11  0.0000000E+00 -0.1147510E-09
  0.2367855E-03  0.0000000E+00 -0.5050505E-02 -0.1994205E-11  0.0000000E+00 -0.1148282E-09
  0.1499413E-02  0.0000000E+00 -0.5050505E-02 -0.4256777E-11  0.0000000E+00 -0.1137878E-09
  0.5287294E-02  0.0000000E+00 -0.5050505E-02 -0.9915850E-11  0.0000000E+00 -0.1069615E-09
 -0.5050505E-02  0.0000000E+00 -0.5050505E-02 -0.1502349E-13  0.0000000E+00 -0.1133178E-09
 -0.5050505E-02  0.0000000E+00 -0.5050505E-02 -0.1090440E-13  0.0000000E+00 -0.1133195E-09
 -0.5050505E-02  0.0000000E+00 -0.5050505E-02 -0.4021744E-14  0.0000000E+00 -0.1133205E-09
 -0.5050505E-02  0.0000000E+00 -0.5050505E-02 -0.2817433E-14  0.0000000E+00 -0.1133208E-09
 -0.5050505E-02  0.0000000E+00 -0.5050505E-02 -0.1851160E-14  0.0000000E+00 -0.1133210E-09
 -0.5050505E-02  0.0000000E+00 -0.5050505E-02 -0.4911147E-15  0.0000000E+00 -0.1133209E-09
 -0.5050504E-02  0.0000000E+00 -0.5050505E-02  0.8985024E-15  0.0000000E+00 -0.1133203E-09
 -0.5050501E-02  0.0000000E+00 -0.5050505E-02  0.2191446E-14  0.0000000E+00 -0.1133193E-09
 -0.5050495E-02  0.0000000E+00 -0.5050505E-02  0.3469562E-14  0.0000000E+00 -0.1133178E-09
 -0.5050482E-02  0.0000000E+00 -0.5050505E-02  0.4680702E-14  0.0000000E+00 -0.1133157E-09
 -0.5050449E-02  0.0000000E+00 -0.5050505E-02  0.5728444E-14  0.0000000E+00 -0.1133133E-09
 -0.5050376E-02  0.0000000E+00 -0.5050505E-02  0.6686969E-14  0.0000000E+00 -0.1133104E-09
 -0.5050299E-02  0.0000000E+00 -0.5050505E-02  0.7548945E-14  0.0000000E+00 -0.1133071E-09
 -0.5050178E-02  0.0000000E+00 -0.5050505E-02  0.8522046E-14  0.0000000E+00 -0.1133034E-09
 -0.5050018E-02  0.0000000E+00 -0.5050505E-02  0.9354493E-14  0.0000000E+00 -0.1132993E-09
 -0.5049710E-02  0.0000000E+00 -0.5050505E-02  0.1006032E-13  0.0000000E+00 -0.1132949E-09
 -0.5049253E-02  0.0000000E+00 -0.5050505E-02  0.1079592E-13  0.0000000E+00 -0.1132902E-09
 -0.5048636E-02  0.0000000E+00 -0.5050505E-02  0.1150179E-13  0.0000000E+00 -0.1132852E-09
 -0.5047442E-02  0.0000000E+00 -0.5050505E-02  0.1225222E-13  0.0000000E+00 -0.1132799E-09
 -0.5045727E-02  0.0000000E+00 -0.5050505E-02  0.1301753E-13  0.0000000E+00 -0.1132742E-09
 -0.5043261E-02  0.0000000E+00 -0.5050505E-02  0.1375317E-13  0.0000000E+00 -0.1132683E-09
 -0.5038714E-02  0.0000000E+00 -0.5050505E-02  0.1446641E-13  0.0000000E+00 -0.1132619E-09
 -0.5032318E-02  0.0000000E+00 -0.5050505E-02  0.1513521E-13  0.0000000E+00 -0.1132554E-09
 -0.5022454E-02  0.0000000E+00 -0.5050505E-02  0.1571475E-13  0.0000000E+00 -0.1132485E-09
 -0.5012589E-02  0.0000000E+00 -0.5050505E-02  0.1622744E-13  0.0000000E+00 -0.1132414E-09
 -0.5002725E-02  0.0000000E+00 -0.5050505E-02  0.1663612E-13  0.0000000E+00 -0.1132341E-09
 -0.4992860E-02  0.0000000E+00 -0.5050505E-02  0.1690360E-13  0.0000000E+00 -0.1132267E-09
 -0.4976523E-02  0.0000000E+00 -0.5050505E-02  0.1707454E-13  0.0000000E+00 -0.1132192E-09
 -0.4956794E-02  0.0000000E+00 -0.5050505E-02  0.1710424E-13  0.0000000E+00 -0.1132116E-09
 -0.4937066E-02  0.0000000E+00 -0.5050505E-02  0.1703731E-13  0.0000000E+00 -0.1132041E-09
 -0.4906239E-02  0.0000000E+00 -0.5050505E-02  0.1685912E-13  0.0000000E+00 -0.1131966E-09
 -0.4866782E-02  0.0000000E+00 -0.5050505E-02  0.1655440E-13  0.0000000E+00 -0.1131892E-09
 -0.4827325E-02  0.0000000E+00 -0.5050505E-02  0.1615313E-13  0.0000000E+00 -0.1131820E-09
 -0.4769372E-02  0.0000000E+00 -0.5050505E-02  0.1568509E-13  0.0000000E+00 -0.1131749E-09
 -0.4690458E-02  0.0000000E+00 -0.5050505E-02  0.1514262E-13  0.0000000E+00 -0.1131681E-09
 -0.4611543E-02  0.0000000E+00 -0.5050505E-02  0.1455571E-13  0.0000000E+00 -0.1131615E-09
 -0.4503035E-02  0.0000000E+00 -0.5050505E-02  0.1395389E-13  0.0000000E+00 -0.1131552E-09
 -0.4345206E-02  0.0000000E+00 -0.5050505E-02  0.1341896E-13  0.0000000E+00 -0.1131492E-09
 -0.4187378E-02  0.0000000E+00 -0.5050505E-02  0.1306230E-13  0.0000000E+00 -0.1131434E-09
 -0.3985156E-02  0.0000000E+00 -0.5050505E-02  0.1290636E-13  0.0000000E+00 -0.1131378E-09
 -0.3669499E-02  0.0000000E+00 -0.5050505E-02  0.1263142E-13  0.0000000E+00 -0.1131322E-09
 -0.3353842E-02  0.0000000E+00 -0.5050505E-02  0.1110148E-13  0.0000000E+00 -0.1131273E-09
 -0.2978990E-02  0.0000000E+00 -0.5050505E-02  0.4346241E-14  0.0000000E+00 -0.1131241E-09
 -0.2347676E-02  0.0000000E+00 -0.5050505E-02 -0.3807426E-15  0.0000000E+00 -0.1131224E-09
 -0.1716362E-02  0.0000000E+00 -0.5050505E-02 -0.2318360E-14  0.0000000E+00 -0.1131223E-09
 -0.1025842E-02  0.0000000E+00 -0.5050505E-02 -0.8253252E-15  0.0000000E+00 -0.1131227E-09
  0.2367855E-03  0.0000000E+00 -0.5050505E-02  0.5022828E-14  0.0000000E+00 -0.1131216E-09
  0.1499413E-02  0.0000000E+00 -0.5050505E-02  0.7579479E-14  0.0000000E+00 -0.1131191E-09
  0.2762042E-02  0.0000000E+00 -0.5050505E-02  0.3106742E-14  0.0000000E+00 -0.1131173E-09
 -0.5050505E-02  0.0000000E+00 -0.5050505E-02 -0.6806051E-14  0.0000000E+00 -0.1131185E-09
 -0.5050505E-02  0.0000000E+00 -0.5050505E-02 -0.1315981E-13  0.0000000E+00 -0.1131225E-09
 -0.5050505E-02  0.0000000E+00 -0.5050505E-02 -0.1252854E-13  0.0000000E+00 -0.1131274E-09
 -0.5050505E-02  0.0000000E+00 -0.5050505E-02 -0.6732079E-14  0.0000000E+00 -0.1131311E-09
 -0.5050505E-02  0.0000000E+00 -0.5050505E-02 -0.4613685E-14  0.0000000E+00 -0.1131336E-09
 -0.5050505E-02  0.0000000E+00 -0.5050505E-02 -0.9287726E-14  0.0000000E+00 -0.1131368E-09
 -0.5050505E-02  0.0000000E+00 -0.5050505E-02 -0.1355246E-13  0.0000000E+00 -0.1131419E-09
 -0.5050504E-02  0.0000000E+00 -0.5050505E-02 -0.1387875E-13  0.0000000E+00 -0.1131483E-09
 -0.5050501E-02  0.0000000E+00 -0.5050505E-02 -0.1374630E-13  0.0000000E+00 -0.1131545E-09
 -0.5050495E-02  0.0000000E+00 -0.5050505E-02 -0.1552957E-13  0.0000000E+00 -0.1131607E-09
 -0.5050482E-02  0.0000000E+00 -0.5050505E-02 -0.1711957E-13  0.0000000E+00 -0.1131675E-09
 -0.5050449E-02  0.0000000E+00 -0.5050505E-02 -0.1836032E-13  0.0000000E+00 -0.1131751E-09
 -0.5050376E-02  0.0000000E+00 -0.5050505E-02 -0.1933363E-13  0.0000000E+00 -0.1131831E-09
 -0.5050299E-02  0.0000000E+00 -0.5050505E-02 -0.2015837E-13  0.0000000E+00 -0.1131916E-09
 -0.5050178E-02  0.0000000E+00 -0.5050505E-02 -0.2084937E-13  0.0000000E+00 -0.1132005E-09
 -0.5050018E-02  0.0000000E+00 -0.5050505E-02 -0.2145869E-13  0.0000000E+00 -0.1132096E-09
 -0.5049710E-02  0.0000000E+00 -0.5050505E-02 -0.2199370E-13  0.0000000E+00 -0.1132189E-09
 -0.5049253E-02  0.0000000E+00 -0.5050505E-02 -0.2246915E-13  0.0000000E+00 -0.1132284E-09
 -0.5048636E-02  0.0000000E+00 -0.5050505E-02 -0.2292249E-13  0.0000000E+00 -0.1132382E-09
 -0.5047442E-02  0.0000000E+00 -0.5050505E-02 -0.2332376E-13  0.0000000E+00 -0.1132481E-09
 -0.5045727E-02  0.0000000E+00 -0.5050505E-02 -0.2368783E-13  0.0000000E+00 -0.1132582E-09
 -0.5043261E-02  0.0000000E+00 -0.5050505E-02 -0.2408910E-13  0.0000000E+00 -0.1132684E-09
 -0.5038714E-02  0.0000000E+00 -0.5050505E-02 -0.2448296E-13  0.0000000E+00 -0.1132787E-09
 -0.5032318E-02  0.0000000E+00 -0.5050505E-02 -0.2495853E-13  0.0000000E+00 -0.1132893E-09
 -0.5022454E-02  0.0000000E+00 -0.5050505E-02 -0.2544902E-13  0.0000000E+00 -0.1132999E-09
 -0.5012589E-02  0.0000000E+00 -0.5050505E-02 -0.2605842E-13  0.0000000E+00 -0.1133108E-09
 -0.5002725E-02  0.0000000E+00 -0.5050505E-02 -0.2677920E-13  0.0000000E+00 -0.1133218E-09
 -0.4992860E-02  0.0000000E+00 -0.5050505E-02 -0.2765609E-13  0.0000000E+00 -0.1133332E-09
 -0.4976523E-02  0.0000000E+00 -0.5050505E-02 -0.2874107E-13  0.0000000E+00 -0.1133449E-09
 -0.4956794E-02  0.0000000E+00 -0.5050505E-02 -0.3004155E-13  0.0000000E+00 -0.1133570E-09
 -0.4937066E-02  0.0000000E+00 -0.5050505E-02 -0.3170615E-13  0.0000000E+00 -0.1133695E-09
 -0.4906239E-02  0.0000000E+00 -0.5050505E-02 -0.3376461E-13  0.0000000E+00 -0.1133827E-09
 -0.4866782E-02  0.0000000E+00 -0.5050505E-02 -0.3633592E-13  0.0000000E+00 -0.1133967E-09
 -0.4827325E-02  0.0000000E+00 -0.5050505E-02 -0.3961310E-13  0.0000000E+00 -0.1134116E-09
 -0.4769372E-02  0.0000000E+00 -0.5050505E-02 -0.4387870E-13  0.0000000E+00 -0.1134278E-09
 -0.4690458E-02  0.0000000E+00 -0.5050505E-02 -0.4943751E-13  0.0000000E+00 -0.1134455E-09
 -0.4611543E-02  0.0000000E+00 -0.5050505E-02 -0.5680965E-13  0.0000000E+00 -0.1134652E-09
 -0.4503035E-02  0.0000000E+00 -0.5050505E-02 -0.6673840E-13  0.0000000E+00 -0.1134875E-09
 -0.4345206E-02  0.0000000E+00 -0.5050505E-02 -0.8028666E-13  0.0000000E+00 -0.1135132E-09
 -0.4187378E-02  0.0000000E+00 -0.5050505E-02 -0.9915669E-13  0.0000000E+00 -0.1135432E-09
 -0.3985156E-02  0.0000000E+00 -0.5050505E-02 -0.1259504E-12  0.0000000E+00 -0.1135788E-09
 -0.3669499E-02  0.0000000E+00 -0.5050505E-02 -0.1649277E-12  0.0000000E+00 -0.1136213E-09
 -0.3353842E-02  0.0000000E+00 -0.5050505E-02 -0.2231901E-12  0.0000000E+00 -0.1136717E-09
 -0.2978990E-02  0.0000000E+00 -0.5050505E-02 -0.3128523E-12  0.0000000E+00 -0.1137294E-09
 -0.2347676E-02  0.0000000E+00 -0.5050505E-02 -0.4550790E-12  0.0000000E+00 -0.1137879E-09
 -0.1716362E-02  0.0000000E+00 -0.5050505E-02 -0.6864783E-12  0.0000000E+00 -0.1138235E-09
 -0.1025842E-02  0.0000000E+00 -0.5050505E-02 -0.1066530E-11  0.0000000E+00 -0.1137648E-09
  0.2367855E-03  0.0000000E+00 -0.5050505E-02 -0.1669103E-11  0.0000000E+00 -0.1134225E-09
  0.1499413E-02  0.0000000E+00 -0.5050505E-02 -0.2464690E-11  0.0000000E+00 -0.1123808E-09
  0.5287294E-02  0.0000000E+00 -0.5050505E-02 -0.2647167E-11  0.0000000E+00 -0.1102259E-09
 -0.5050505E-02  0.0000000E+00 -0.5050505E-02 -0.1613808E-13  0.0000000E+00 -0.1128048E-09
 -0.5050505E-02  0.0000000E+00 -0.5050505E-02 -0.1200563E-13  0.0000000E+00 -0.1128055E-09
 -0.5050505E-02  0.0000000E+00 -0.5050505E-02 -0.3830601E-14  0.0000000E+00 -0.1128055E-09
 -0.5050505E-02  0.0000000E+00 -0.5050505E-02 -0.2669650E-14  0.0000000E+00 -0.1128049E-09
 -0.5050505E-02  0.0000000E+00 -0.5050505E-02 -0.1568217E-14  0.0000000E+00 -0.1128043E-09
 -0.5050505E-02  0.0000000E+00 -0.5050505E-02  0.1170037E-15  0.0000000E+00 -0.1128035E-09
 -0.5050504E-02  0.0000000E+00 -0.5050505E-02  0.1986783E-14  0.0000000E+00 -0.1128024E-09
 -0.5050501E-02  0.0000000E+00 -0.5050505E-02  0.3745728E-14  0.0000000E+00 -0.1128008E-09
 -0.5050495E-02  0.0000000E+00 -0.5050505E-02  0.5526707E-14  0.0000000E+00 -0.1127986E-09
 -0.5050482E-02  0.0000000E+00 -0.5050505E-02  0.7211720E-14  0.0000000E+00 -0.1127960E-09
 -0.5050449E-02  0.0000000E+00 -0.5050505E-02  0.8697056E-14  0.0000000E+00 -0.1127930E-09
 -0.5050376E-02  0.0000000E+00 -0.5050505E-02  0.1006419E-13  0.0000000E+00 -0.1127894E-09
 -0.5050299E-02  0.0000000E+00 -0.5050505E-02  0.1132773E-13  0.0000000E+00 -0.1127854E-09
 -0.5050178E-02  0.0000000E+00 -0.5050505E-02  0.1279103E-13  0.0000000E+00 -0.1127810E-09
 -0.5050018E-02  0.0000000E+00 -0.5050505E-02  0.1387734E-13  0.0000000E+00 -0.1127762E-09
 -0.5049710E-02  0.0000000E+00 -0.5050505E-02  0.1494142E-13  0.0000000E+00 -0.1127711E-09
 -0.5049253E-02  0.0000000E+00 -0.5050505E-02  0.1598341E-13  0.0000000E+00 -0.1127656E-09
 -0.5048636E-02  0.0000000E+00 -0.5050505E-02  0.1706219E-13  0.0000000E+00 -0.1127597E-09
 -0.5047442E-02  0.0000000E+00 -0.5050505E-02  0.1814850E-13  0.0000000E+00 -0.1127535E-09
 -0.5045727E-02  0.0000000E+00 -0.5050505E-02  0.1925698E-13  0.0000000E+00 -0.1127469E-09
 -0.5043261E-02  0.0000000E+00 -0.5050505E-02  0.2032105E-13  0.0000000E+00 -0.1127399E-09
 -0.5038714E-02  0.0000000E+00 -0.5050505E-02  0.2134093E-13  0.0000000E+00 -0.1127326E-09
 -0.5032318E-02  0.0000000E+00 -0.5050505E-02  0.2230154E-13  0.0000000E+00 -0.1127250E-09
 -0.5022454E-02  0.0000000E+00 -0.5050505E-02  0.2314398E-13  0.0000000E+00 -0.1127171E-09
 -0.5012589E-02  0.0000000E+00 -0.5050505E-02  0.2389034E-13  0.0000000E+00 -0.1127089E-09
 -0.5002725E-02  0.0000000E+00 -0.5050505E-02  0.2443726E-13  0.0000000E+00 -0.1127005E-09
 -0.4992860E-02  0.0000000E+00 -0.5050505E-02  0.2484366E-13  0.0000000E+00 -0.1126920E-09
 -0.4976523E-02  0.0000000E+00 -0.5050505E-02  0.2505800E-13  0.0000000E+00 -0.1126834E-09
 -0.4956794E-02  0.0000000E+00 -0.5050505E-02  0.2512447E-13  0.0000000E+00 -0.1126748E-09
 -0.4937066E-02  0.0000000E+00 -0.5050505E-02  0.2502109E-13  0.0000000E+00 -0.1126661E-09