title = "dataset feddes"
variables = "x", "y", "z", "vx", "vy", "vz"
zone t = "velocities, solution time =  1.000E+00 days        " i =   99, j =   99, k =    1,  f=point
 -0.5050505E-02  0.0000000E+00 -0.5050505E-02 -0.9339299E-13  0.0000000E+00 -0.1696188E-09
 -0.5050505E-02  0.0000000E+00 -0.5050505E-02 -0.6634831E-13  0.0000000E+00 -0.1697786E-09
 -0.5050505E-02  0.0000000E+00 -0.5050505E-02 -0.5717846E-13  0.0000000E+00 -0.1699021E-09
 -0.5050505E-02  0.0000000E+00 -0.5050505E-02 -0.3129595E-13  0.0000000E+00 -0.1699906E-09
 -0.5050505E-02  0.0000000E+00 -0.5050505E-02 -0.1696759E-13  0.0000000E+00 -0.1700388E-09
 -0.5050505E-02  0.0000000E+00 -0.5050505E-02 -0.1871459E-13  0.0000000E+00 -0.1700745E-09
 -0.5050504E-02  0.0000000E+00 -0.5050505E-02 -0.1920944E-13  0.0000000E+00 -0.1701124E-09
 -0.5050501E-02  0.0000000E+00 -0.5050505E-02 -0.1577544E-13  0.0000000E+00 -0.1701474E-09
 -0.5050495E-02  0.0000000E+00 -0.5050505E-02 -0.1109679E-13  0.0000000E+00 -0.1701743E-09
 -0.5050482E-02  0.0000000E+00 -0.5050505E-02 -0.7077953E-14  0.0000000E+00 -0.1701925E-09
 -0.5050449E-02  0.0000000E+00 -0.5050505E-02 -0.4228777E-14  0.0000000E+00 -0.1702038E-09
 -0.5050376E-02  0.0000000E+00 -0.5050505E-02 -0.2421800E-14  0.0000000E+00 -0.1702104E-09
 -0.5050299E-02  0.0000000E+00 -0.5050505E-02 -0.1327116E-14  0.0000000E+00 -0.1702142E-09
 -0.5050178E-02  0.0000000E+00 -0.5050505E-02 -0.7047961E-15  0.0000000E+00 -0.1702162E-09
 -0.5050018E-02  0.0000000E+00 -0.5050505E-02 -0.3449002E-15  0.0000000E+00 -0.1702173E-09
 -0.5049710E-02  0.0000000E+00 -0.5050505E-02 -0.2099393E-15  0.0000000E+00 -0.1702178E-09
 -0.5049253E-02  0.0000000E+00 -0.5050505E-02 -0.1049696E-15  0.0000000E+00 -0.1702181E-09
 -0.5048636E-02  0.0000000E+00 -0.5050505E-02 -0.3748916E-16  0.0000000E+00 -0.1702183E-09
 -0.5047442E-02  0.0000000E+00 -0.5050505E-02 -0.7497831E-17  0.0000000E+00 -0.1702183E-09
 -0.5045727E-02  0.0000000E+00 -0.5050505E-02  0.1499566E-16  0.0000000E+00 -0.1702183E-09
 -0.5043261E-02  0.0000000E+00 -0.5050505E-02  0.0000000E+00  0.0000000E+00 -0.1702183E-09
 -0.5038714E-02  0.0000000E+00 -0.5050505E-02 -0.7497831E-17  0.0000000E+00 -0.1702183E-09
 -0.5032318E-02  0.0000000E+00 -0.5050505E-02 -0.1499566E-16  0.0000000E+00 -0.1702183E-09
 -0.5022454E-02  0.0000000E+00 -0.5050505E-02  0.0000000E+00  0.0000000E+00 -0.1702183E-09
 -0.5012589E-02  0.0000000E+00 -0.5050505E-02 -0.7497831E-17  0.0000000E+00 -0.1702184E-09
 -0.5002725E-02  0.0000000E+00 -0.5050505E-02  0.0000000E+00  0.0000000E+00 -0.1702184E-09
 -0.4992860E-02  0.0000000E+00 -0.5050505E-02 -0.7497831E-17  0.0000000E+00 -0.1702184E-09
 -0.4976523E-02  0.0000000E+00 -0.5050505E-02  0.0000000E+00  0.0000000E+00 -0.1702184E-09
 -0.4956794E-02  0.0000000E+00 -0.5050505E-02  0.0000000E+00  0.0000000E+00 -0.1702184E-09
 -0.4937066E-02  0.0000000E+00 -0.5050505E-02  0.0000000E+00  0.0000000E+00 -0.1702184E-09
 -0.4906239E-02  0.0000000E+00 -0.5050505E-02  0.0000000E+00  0.0000000E+00 -0.1702184E-09
 -0.4866782E-02  0.0000000E+00 -0.5050505E-02  0.0000000E+00  0.0000000E+00 -0.1702184E-09
 -0.4827325E-02  0.0000000E+00 -0.5050505E-02  0.0000000E+00  0.0000000E+00 -0.1702184E-09
 -0.4769372E-02  0.0000000E+00 -0.5050505E-02  0.0000000E+00  0.0000000E+00 -0.1702184E-09
 -0.4690458E-02  0.0000000E+00 -0.5050505E-02  0.0000000E+00  0.0000000E+00 -0.1702184E-09
 -0.4611543E-02  0.0000000E+00 -0.5050505E-02  0.0000000E+00  0.0000000E+00 -0.1702184E-09
 -0.4503035E-02  0.0000000E+00 -0.5050505E-02  0.0000000E+00  0.0000000E+00 -0.1702184E-09
 -0.4345206E-02  0.0000000E+00 -0.5050505E-02  0.0000000E+00  0.0000000E+00 -0.1702184E-09
 -0.4187378E-02  0.0000000E+00 -0.5050505E-02  0.0000000E+00  0.0000000E+00 -0.1702184E-09
 -0.3985156E-02  0.0000000E+00 -0.5050505E-02  0.0000000E+00  0.0000000E+00 -0.1702184E-09
 -0.3669499E-02  0.0000000E+00 -0.5050505E-02  0.0000000E+00  0.0000000E+00 -0.1702184E-09
 -0.3353842E-02  0.0000000E+00 -0.5050505E-02  0.0000000E+00  0.0000000E+00 -0.1702184E-09
 -0.2978990E-02  0.0000000E+00 -0.5050505E-02  0.0000000E+00  0.0000000E+00 -0.1702184E-09
 -0.2347676E-02  0.0000000E+00 -0.5050505E-02  0.0000000E+00  0.0000000E+00 -0.1702184E-09
 -0.1716362E-02  0.0000000E+00 -0.5050505E-02  0.0000000E+00  0.0000000E+00 -0.1702184E-09
 -0.1025842E-02  0.0000000E+00 -0.5050505E-02  0.0000000E+00  0.0000000E+00 -0.1702184E-09
  0.2367855E-03  0.0000000E+00 -0.5050505E-02  0.0000000E+00  0.0000000E+00 -0.1702184E-09
  0.1499413E-02  0.0000000E+00 -0.5050505E-02  0.0000000E+00  0.0000000E+00 -0.1702184E-09
  0.2762042E-02  0.0000000E+00 -0.5050505E-02  0.0000000E+00  0.0000000E+00 -0.1702184E-09
 -0.5050505E-02  0.0000000E+00 -0.5050505E-02  0.0000000E+00  0.0000000E+00 -0.1702184E-09
 -0.5050505E-02  0.0000000E+00 -0.5050505E-02  0.0000000E+00  0.0000000E+00 -0.1702184E-09
 -0.5050505E-02  0.0000000E+00 -0.5050505E-02  0.0000000E+00  0.0000000E+00 -0.1702184E-09
 -0.5050505E-02  0.0000000E+00 -0.5050505E-02  0.0000000E+00  0.0000000E+00 -0.1702184E-09
 -0.5050505E-02  0.0000000E+00 -0.5050505E-02  0.0000000E+00  0.0000000E+00 -0.1702184E-09
 -0.5050505E-02  0.0000000E+00 -0.5050505E-02  0.0000000E+00  0.0000000E+00 -0.1702184E-09
 -0.5050505E-02  0.0000000E+00 -0.5050505E-02  0.0000000E+00  0.0000000E+00 -0.1702184E-09
 -0.5050504E-02  0.0000000E+00 -0.5050505E-02  0.0000000E+00  0.0000000E+00 -0.1702184E-09
 -0.5050501E-02  0.0000000E+00 -0.5050505E-02  0.0000000E+00  0.0000000E+00 -0.1702184E-09
 -0.5050495E-02  0.0000000E+00 -0.5050505E-02  0.0000000E+00  0.0000000E+00 -0.1702184E-09
 -0.5050482E-02  0.0000000E+00 -0.5050505E-02  0.0000000E+00  0.0000000E+00 -0.1702184E-09
 -0.5050449E-02  0.0000000E+00 -0.5050505E-02  0.7497831E-17  0.0000000E+00 -0.1702184E-09
 -0.5050376E-02  0.0000000E+00 -0.5050505E-02  0.0000000E+00  0.0000000E+00 -0.1702184E-09
 -0.5050299E-02  0.0000000E+00 -0.5050505E-02  0.0000000E+00  0.0000000E+00 -0.1702184E-09
 -0.5050178E-02  0.0000000E+00 -0.5050505E-02 -0.7497831E-17  0.0000000E+00 -0.1702184E-09
 -0.5050018E-02  0.0000000E+00 -0.5050505E-02  0.7497831E-17  0.0000000E+00 -0.1702184E-09
 -0.5049710E-02  0.0000000E+00 -0.5050505E-02  0.0000000E+00  0.0000000E+00 -0.1702184E-09
 -0.5049253E-02  0.0000000E+00 -0.5050505E-02  0.0000000E+00  0.0000000E+00 -0.1702184E-09
 -0.5048636E-02  0.0000000E+00 -0.5050505E-02  0.0000000E+00  0.0000000E+00 -0.1702184E-09
 -0.5047442E-02  0.0000000E+00 -0.5050505E-02  0.7497831E-17  0.0000000E+00 -0.1702184E-09
 -0.5045727E-02  0.0000000E+00 -0.5050505E-02  0.0000000E+00  0.0000000E+00 -0.1702183E-09
 -0.5043261E-02  0.0000000E+00 -0.5050505E-02  0.0000000E+00  0.0000000E+00 -0.1702183E-09
 -0.5038714E-02  0.0000000E+00 -0.5050505E-02  0.0000000E+00  0.0000000E+00 -0.1702183E-09
 -0.5032318E-02  0.0000000E+00 -0.5050505E-02 -0.7497831E-17  0.0000000E+00 -0.1702184E-09
 -0.5022454E-02  0.0000000E+00 -0.5050505E-02 -0.7497831E-17  0.0000000E+00 -0.1702184E-09
 -0.5012589E-02  0.0000000E+00 -0.5050505E-02 -0.1499566E-16  0.0000000E+00 -0.1702184E-09
 -0.5002725E-02  0.0000000E+00 -0.5050505E-02 -0.2999133E-16  0.0000000E+00 -0.1702184E-09
 -0.4992860E-02  0.0000000E+00 -0.5050505E-02 -0.6748048E-16  0.0000000E+00 -0.1702185E-09
 -0.4976523E-02  0.0000000E+00 -0.5050505E-02 -0.1349610E-15  0.0000000E+00 -0.1702187E-09
 -0.4956794E-02  0.0000000E+00 -0.5050505E-02 -0.2399306E-15  0.0000000E+00 -0.1702191E-09
 -0.4937066E-02  0.0000000E+00 -0.5050505E-02 -0.4573677E-15  0.0000000E+00 -0.1702198E-09
 -0.4906239E-02  0.0000000E+00 -0.5050505E-02 -0.7797745E-15  0.0000000E+00 -0.1702210E-09
 -0.4866782E-02  0.0000000E+00 -0.5050505E-02 -0.1327116E-14  0.0000000E+00 -0.1702232E-09
 -0.4827325E-02  0.0000000E+00 -0.5050505E-02 -0.2159375E-14  0.0000000E+00 -0.1702266E-09
 -0.4769372E-02  0.0000000E+00 -0.5050505E-02 -0.3471496E-14  0.0000000E+00 -0.1702323E-09
 -0.4690458E-02  0.0000000E+00 -0.5050505E-02 -0.5458421E-14  0.0000000E+00 -0.1702412E-09
 -0.4611543E-02  0.0000000E+00 -0.5050505E-02 -0.8382575E-14  0.0000000E+00 -0.1702550E-09
 -0.4503035E-02  0.0000000E+00 -0.5050505E-02 -0.1257386E-13  0.0000000E+00 -0.1702760E-09
 -0.4345206E-02  0.0000000E+00 -0.5050505E-02 -0.1848965E-13  0.0000000E+00 -0.1703071E-09
 -0.4187378E-02  0.0000000E+00 -0.5050505E-02 -0.2678975E-13  0.0000000E+00 -0.1703523E-09
 -0.3985156E-02  0.0000000E+00 -0.5050505E-02 -0.3845638E-13  0.0000000E+00 -0.1704176E-09
 -0.3669499E-02  0.0000000E+00 -0.5050505E-02 -0.5536399E-13  0.0000000E+00 -0.1705114E-09
 -0.3353842E-02  0.0000000E+00 -0.5050505E-02 -0.8122401E-13  0.0000000E+00 -0.1706480E-09
 -0.2978990E-02  0.0000000E+00 -0.5050505E-02 -0.1238942E-12  0.0000000E+00 -0.1708531E-09
 -0.2347676E-02  0.0000000E+00 -0.5050505E-02 -0.2008969E-12  0.0000000E+00 -0.1711779E-09
 -0.1716362E-02  0.0000000E+00 -0.5050505E-02 -0.3541226E-12  0.0000000E+00 -0.1717329E-09
 -0.1025842E-02  0.0000000E+00 -0.5050505E-02 -0.6937743E-12  0.0000000E+00 -0.1727808E-09
  0.2367855E-03  0.0000000E+00 -0.5050505E-02 -0.1544546E-11  0.0000000E+00 -0.1750191E-09
  0.1499413E-02  0.0000000E+00 -0.5050505E-02 -0.3977794E-11  0.0000000E+00 -0.1805415E-09
  0.5287294E-02  0.0000000E+00 -0.5050505E-02 -0.6409286E-10  0.0000000E+00 -0.1444740E-09
 -0.5050505E-02  0.0000000E+00 -0.5050505E-02 -0.1981158E-12  0.0000000E+00 -0.1691393E-09
 -0.5050505E-02  0.0000000E+00 -0.5050505E-02 -0.1351197E-12  0.0000000E+00 -0.1691539E-09
 -0.5050505E-02  0.0000000E+00 -0.5050505E-02 -0.1366264E-12  0.0000000E+00 -0.1691793E-09
 -0.5050505E-02  0.0000000E+00 -0.5050505E-02 -0.9795739E-13  0.0000000E+00 -0.1692374E-09
 -0.5050505E-02  0.0000000E+00 -0.5050505E-02 -0.5594601E-13  0.0000000E+00 -0.1692951E-09
 -0.5050505E-02  0.0000000E+00 -0.5050505E-02 -0.5164643E-13  0.0000000E+00 -0.1693315E-09
 -0.5050504E-02  0.0000000E+00 -0.5050505E-02 -0.5097074E-13  0.0000000E+00 -0.1693585E-09
 -0.5050501E-02  0.0000000E+00 -0.5050505E-02 -0.4294402E-13  0.0000000E+00 -0.1693826E-09
 -0.5050495E-02  0.0000000E+00 -0.5050505E-02 -0.3136885E-13  0.0000000E+00 -0.1694034E-09
 -0.5050482E-02  0.0000000E+00 -0.5050505E-02 -0.2073680E-13  0.0000000E+00 -0.1694192E-09
 -0.5050449E-02  0.0000000E+00 -0.5050505E-02 -0.1277301E-13  0.0000000E+00 -0.1694302E-09
 -0.5050376E-02  0.0000000E+00 -0.5050505E-02 -0.7506589E-14  0.0000000E+00 -0.1694372E-09
 -0.5050299E-02  0.0000000E+00 -0.5050505E-02 -0.4212473E-14  0.0000000E+00 -0.1694414E-09
 -0.5050178E-02  0.0000000E+00 -0.5050505E-02 -0.2300317E-14  0.0000000E+00 -0.1694439E-09
 -0.5050018E-02  0.0000000E+00 -0.5050505E-02 -0.1135205E-14  0.0000000E+00 -0.1694452E-09
 -0.5049710E-02  0.0000000E+00 -0.5050505E-02 -0.6647372E-15  0.0000000E+00 -0.1694459E-09
 -0.5049253E-02  0.0000000E+00 -0.5050505E-02 -0.3360964E-15  0.0000000E+00 -0.1694463E-09
 -0.5048636E-02  0.0000000E+00 -0.5050505E-02 -0.1642361E-15  0.0000000E+00 -0.1694465E-09
 -0.5047442E-02  0.0000000E+00 -0.5050505E-02 -0.5223205E-16  0.0000000E+00 -0.1694466E-09
 -0.5045727E-02  0.0000000E+00 -0.5050505E-02  0.4481848E-16  0.0000000E+00 -0.1694467E-09
 -0.5043261E-02  0.0000000E+00 -0.5050505E-02 -0.7455703E-17  0.0000000E+00 -0.1694467E-09
 -0.5038714E-02  0.0000000E+00 -0.5050505E-02 -0.2986494E-16  0.0000000E+00 -0.1694467E-09
 -0.5032318E-02  0.0000000E+00 -0.5050505E-02 -0.5972988E-16  0.0000000E+00 -0.1694467E-09
 -0.5022454E-02  0.0000000E+00 -0.5050505E-02 -0.7455703E-17  0.0000000E+00 -0.1694468E-09
 -0.5012589E-02  0.0000000E+00 -0.5050505E-02 -0.7497831E-17  0.0000000E+00 -0.1694468E-09
 -0.5002725E-02  0.0000000E+00 -0.5050505E-02 -0.7455703E-17  0.0000000E+00 -0.1694468E-09
 -0.4992860E-02  0.0000000E+00 -0.5050505E-02 -0.1495353E-16  0.0000000E+00 -0.1694468E-09
 -0.4976523E-02  0.0000000E+00 -0.5050505E-02  0.0000000E+00  0.0000000E+00 -0.1694468E-09
 -0.4956794E-02  0.0000000E+00 -0.5050505E-02  0.0000000E+00  0.0000000E+00 -0.1694468E-09
 -0.4937066E-02  0.0000000E+00 -0.5050505E-02  0.0000000E+00  0.0000000E+00 -0.1694468E-09
 -0.4906239E-02  0.0000000E+00 -0.5050505E-02  0.0000000E+00  0.0000000E+00 -0.1694468E-09
 -0.4866782E-02  0.0000000E+00 -0.5050505E-02  0.0000000E+00  0.0000000E+00 -0.1694468E-09
 -0.4827325E-02  0.0000000E+00 -0.5050505E-02  0.0000000E+00  0.0000000E+00 -0.1694468E-09
 -0.4769372E-02  0.0000000E+00 -0.5050505E-02  0.0000000E+00  0.0000000E+00 -0.1694468E-09
 -0.4690458E-02  0.0000000E+00 -0.5050505E-02  0.0000000E+00  0.0000000E+00 -0.1694468E-09
 -0.4611543E-02  0.0000000E+00 -0.5050505E-02  0.0000000E+00  0.0000000E+00 -0.1694468E-09
 -0.4503035E-02  0.0000000E+00 -0.5050505E-02  0.0000000E+00  0.0000000E+00 -0.1694468E-09
 -0.4345206E-02  0.0000000E+00 -0.5050505E-02  0.0000000E+00  0.0000000E+00 -0.1694468E-09
 -0.4187378E-02  0.0000000E+00 -0.5050505E-02  0.0000000E+00  0.0000000E+00 -0.1694468E-09
 -0.3985156E-02  0.0000000E+00 -0.5050505E-02  0.0000000E+00  0.0000000E+00 -0.1694468E-09
 -0.3669499E-02  0.0000000E+00 -0.5050505E-02  0.0000000E+00  0.0000000E+00 -0.1694468E-09
 -0.3353842E-02  0.0000000E+00 -0.5050505E-02  0.0000000E+00  0.0000000E+00 -0.1694468E-09
 -0.2978990E-02  0.0000000E+00 -0.5050505E-02  0.0000000E+00  0.0000000E+00 -0.1694468E-09
 -0.2347676E-02  0.0000000E+00 -0.5050505E-02  0.0000000E+00  0.0000000E+00 -0.1694468E-09
 -0.1716362E-02  0.0000000E+00 -0.5050505E-02  0.0000000E+00  0.0000000E+00 -0.1694468E-09
 -0.1025842E-02  0.0000000E+00 -0.5050505E-02  0.0000000E+00  0.0000000E+00 -0.1694468E-09
  0.2367855E-03  0.0000000E+00 -0.5050505E-02  0.0000000E+00  0.0000000E+00 -0.1694468E-09
  0.1499413E-02  0.0000000E+00 -0.5050505E-02  0.0000000E+00  0.0000000E+00 -0.1694468E-09
  0.2762042E-02  0.0000000E+00 -0.5050505E-02  0.0000000E+00  0.0000000E+00 -0.1694468E-09
 -0.5050505E-02  0.0000000E+00 -0.5050505E-02  0.0000000E+00  0.0000000E+00 -0.1694468E-09
 -0.5050505E-02  0.0000000E+00 -0.5050505E-02  0.0000000E+00  0.0000000E+00 -0.1694468E-09
 -0.5050505E-02  0.0000000E+00 -0.5050505E-02  0.0000000E+00  0.0000000E+00 -0.1694468E-09
 -0.5050505E-02  0.0000000E+00 -0.5050505E-02  0.0000000E+00  0.0000000E+00 -0.1694468E-09
 -0.5050505E-02  0.0000000E+00 -0.5050505E-02  0.0000000E+00  0.0000000E+00 -0.1694468E-09
 -0.5050505E-02  0.0000000E+00 -0.5050505E-02  0.0000000E+00  0.0000000E+00 -0.1694468E-09
 -0.5050505E-02  0.0000000E+00 -0.5050505E-02  0.0000000E+00  0.0000000E+00 -0.1694468E-09
 -0.5050504E-02  0.0000000E+00 -0.5050505E-02  0.0000000E+00  0.0000000E+00 -0.1694468E-09
 -0.5050501E-02  0.0000000E+00 -0.5050505E-02  0.0000000E+00  0.0000000E+00 -0.1694468E-09
 -0.5050495E-02  0.0000000E+00 -0.5050505E-02  0.0000000E+00  0.0000000E+00 -0.1694468E-09
 -0.5050482E-02  0.0000000E+00 -0.5050505E-02  0.7455703E-17  0.0000000E+00 -0.1694468E-09
 -0.5050449E-02  0.0000000E+00 -0.5050505E-02  0.7497831E-17  0.0000000E+00 -0.1694468E-09
 -0.5050376E-02  0.0000000E+00 -0.5050505E-02  0.0000000E+00  0.0000000E+00 -0.1694468E-09
 -0.5050299E-02  0.0000000E+00 -0.5050505E-02  0.0000000E+00  0.0000000E+00 -0.1694468E-09
 -0.5050178E-02  0.0000000E+00 -0.5050505E-02 -0.7497831E-17  0.0000000E+00 -0.1694468E-09
 -0.5050018E-02  0.0000000E+00 -0.5050505E-02  0.7497831E-17  0.0000000E+00 -0.1694468E-09
 -0.5049710E-02  0.0000000E+00 -0.5050505E-02  0.0000000E+00  0.0000000E+00 -0.1694468E-09
 -0.5049253E-02  0.0000000E+00 -0.5050505E-02  0.7455703E-17  0.0000000E+00 -0.1694468E-09
 -0.5048636E-02  0.0000000E+00 -0.5050505E-02  0.0000000E+00  0.0000000E+00 -0.1694468E-09
 -0.5047442E-02  0.0000000E+00 -0.5050505E-02  0.1495353E-16  0.0000000E+00 -0.1694468E-09
 -0.5045727E-02  0.0000000E+00 -0.5050505E-02  0.7455703E-17  0.0000000E+00 -0.1694467E-09
 -0.5043261E-02  0.0000000E+00 -0.5050505E-02 -0.7455703E-17  0.0000000E+00 -0.1694467E-09
 -0.5038714E-02  0.0000000E+00 -0.5050505E-02  0.2236711E-16  0.0000000E+00 -0.1694467E-09
 -0.5032318E-02  0.0000000E+00 -0.5050505E-02 -0.3732065E-16  0.0000000E+00 -0.1694467E-09
 -0.5022454E-02  0.0000000E+00 -0.5050505E-02 -0.1495353E-16  0.0000000E+00 -0.1694468E-09
 -0.5012589E-02  0.0000000E+00 -0.5050505E-02 -0.4481848E-16  0.0000000E+00 -0.1694468E-09
 -0.5002725E-02  0.0000000E+00 -0.5050505E-02 -0.8963695E-16  0.0000000E+00 -0.1694468E-09
 -0.4992860E-02  0.0000000E+00 -0.5050505E-02 -0.1793160E-15  0.0000000E+00 -0.1694469E-09
 -0.4976523E-02  0.0000000E+00 -0.5050505E-02 -0.3511764E-15  0.0000000E+00 -0.1694470E-09
 -0.4956794E-02  0.0000000E+00 -0.5050505E-02 -0.6798171E-15  0.0000000E+00 -0.1694473E-09
 -0.4937066E-02  0.0000000E+00 -0.5050505E-02 -0.1307318E-14  0.0000000E+00 -0.1694479E-09
 -0.4906239E-02  0.0000000E+00 -0.5050505E-02 -0.2211270E-14  0.0000000E+00 -0.1694489E-09
 -0.4866782E-02  0.0000000E+00 -0.5050505E-02 -0.3794954E-14  0.0000000E+00 -0.1694508E-09
 -0.4827325E-02  0.0000000E+00 -0.5050505E-02 -0.6215278E-14  0.0000000E+00 -0.1694538E-09
 -0.4769372E-02  0.0000000E+00 -0.5050505E-02 -0.1002506E-13  0.0000000E+00 -0.1694588E-09
 -0.4690458E-02  0.0000000E+00 -0.5050505E-02 -0.1579203E-13  0.0000000E+00 -0.1694668E-09
 -0.4611543E-02  0.0000000E+00 -0.5050505E-02 -0.2429305E-13  0.0000000E+00 -0.1694793E-09
 -0.4503035E-02  0.0000000E+00 -0.5050505E-02 -0.3644703E-13  0.0000000E+00 -0.1694983E-09
 -0.4345206E-02  0.0000000E+00 -0.5050505E-02 -0.5352400E-13  0.0000000E+00 -0.1695263E-09
 -0.4187378E-02  0.0000000E+00 -0.5050505E-02 -0.7721267E-13  0.0000000E+00 -0.1695667E-09
 -0.3985156E-02  0.0000000E+00 -0.5050505E-02 -0.1101206E-12  0.0000000E+00 -0.1696239E-09
 -0.3669499E-02  0.0000000E+00 -0.5050505E-02 -0.1568361E-12  0.0000000E+00 -0.1697038E-09
 -0.3353842E-02  0.0000000E+00 -0.5050505E-02 -0.2263493E-12  0.0000000E+00 -0.1698145E-09
 -0.2978990E-02  0.0000000E+00 -0.5050505E-02 -0.3368365E-12  0.0000000E+00 -0.1699686E-09
 -0.2347676E-02  0.0000000E+00 -0.5050505E-02 -0.5261520E-12  0.0000000E+00 -0.1701839E-09
 -0.1716362E-02  0.0000000E+00 -0.5050505E-02 -0.8759771E-12  0.0000000E+00 -0.1704791E-09
 -0.1025842E-02  0.0000000E+00 -0.5050505E-02 -0.1570722E-11  0.0000000E+00 -0.1708359E-09
  0.2367855E-03  0.0000000E+00 -0.5050505E-02 -0.3052663E-11  0.0000000E+00 -0.1709952E-09
  0.1499413E-02  0.0000000E+00 -0.5050505E-02 -0.6462109E-11  0.0000000E+00 -0.1694963E-09
  0.5287294E-02  0.0000000E+00 -0.5050505E-02 -0.1493570E-10  0.0000000E+00 -0.1592739E-09
 -0.5050505E-02  0.0000000E+00 -0.5050505E-02 -0.2065081E-12  0.0000000E+00 -0.1679158E-09
 -0.5050505E-02  0.0000000E+00 -0.5050505E-02 -0.1229669E-12  0.0000000E+00 -0.1678993E-09
 -0.5050505E-02  0.0000000E+00 -0.5050505E-02 -0.1391446E-12  0.0000000E+00 -0.1678658E-09
 -0.5050505E-02  0.0000000E+00 -0.5050505E-02 -0.1493930E-12  0.0000000E+00 -0.1678629E-09
 -0.5050505E-02  0.0000000E+00 -0.5050505E-02 -0.9736280E-13  0.0000000E+00 -0.1678990E-09
 -0.5050505E-02  0.0000000E+00 -0.5050505E-02 -0.7688138E-13  0.0000000E+00 -0.1679298E-09
 -0.5050504E-02  0.0000000E+00 -0.5050505E-02 -0.7096595E-13  0.0000000E+00 -0.1679486E-09
 -0.5050501E-02  0.0000000E+00 -0.5050505E-02 -0.6125765E-13  0.0000000E+00 -0.1679633E-09
 -0.5050495E-02  0.0000000E+00 -0.5050505E-02 -0.4705103E-13  0.0000000E+00 -0.1679770E-09
 -0.5050482E-02  0.0000000E+00 -0.5050505E-02 -0.3276444E-13  0.0000000E+00 -0.1679892E-09
 -0.5050449E-02  0.0000000E+00 -0.5050505E-02 -0.2105147E-13  0.0000000E+00 -0.1679987E-09
 -0.5050376E-02  0.0000000E+00 -0.5050505E-02 -0.1288420E-13  0.0000000E+00 -0.1680054E-09
 -0.5050299E-02  0.0000000E+00 -0.5050505E-02 -0.7474555E-14  0.0000000E+00 -0.1680099E-09
 -0.5050178E-02  0.0000000E+00 -0.5050505E-02 -0.4309004E-14  0.0000000E+00 -0.1680128E-09
 -0.5050018E-02  0.0000000E+00 -0.5050505E-02 -0.2117391E-14  0.0000000E+00 -0.1680144E-09
 -0.5049710E-02  0.0000000E+00 -0.5050505E-02 -0.1181359E-14  0.0000000E+00 -0.1680152E-09
 -0.5049253E-02  0.0000000E+00 -0.5050505E-02 -0.5944074E-15  0.0000000E+00 -0.1680156E-09
 -0.5048636E-02  0.0000000E+00 -0.5050505E-02 -0.4010609E-15  0.0000000E+00 -0.1680159E-09
 -0.5047442E-02  0.0000000E+00 -0.5050505E-02 -0.2152537E-15  0.0000000E+00 -0.1680162E-09
 -0.5045727E-02  0.0000000E+00 -0.5050505E-02  0.1410312E-15  0.0000000E+00 -0.1680162E-09
 -0.5043261E-02  0.0000000E+00 -0.5050505E-02 -0.3711126E-16  0.0000000E+00 -0.1680162E-09
 -0.5038714E-02  0.0000000E+00 -0.5050505E-02 -0.9650601E-16  0.0000000E+00 -0.1680163E-09
 -0.5032318E-02  0.0000000E+00 -0.5050505E-02 -0.1337009E-15  0.0000000E+00 -0.1680164E-09
 -0.5022454E-02  0.0000000E+00 -0.5050505E-02 -0.2228348E-16  0.0000000E+00 -0.1680164E-09
 -0.5012589E-02  0.0000000E+00 -0.5050505E-02  0.1482778E-16  0.0000000E+00 -0.1680164E-09
 -0.5002725E-02  0.0000000E+00 -0.5050505E-02 -0.3711126E-16  0.0000000E+00 -0.1680164E-09
 -0.4992860E-02  0.0000000E+00 -0.5050505E-02  0.7372077E-17  0.0000000E+00 -0.1680164E-09
 -0.4976523E-02  0.0000000E+00 -0.5050505E-02  0.0000000E+00  0.0000000E+00 -0.1680164E-09
 -0.4956794E-02  0.0000000E+00 -0.5050505E-02  0.0000000E+00  0.0000000E+00 -0.1680164E-09
 -0.4937066E-02  0.0000000E+00 -0.5050505E-02  0.0000000E+00  0.0000000E+00 -0.1680164E-09
 -0.4906239E-02  0.0000000E+00 -0.5050505E-02  0.0000000E+00  0.0000000E+00 -0.1680164E-09
 -0.4866782E-02  0.0000000E+00 -0.5050505E-02  0.0000000E+00  0.0000000E+00 -0.1680164E-09
 -0.4827325E-02  0.0000000E+00 -0.5050505E-02  0.0000000E+00  0.0000000E+00 -0.1680164E-09
 -0.4769372E-02  0.0000000E+00 -0.5050505E-02  0.0000000E+00  0.0000000E+00 -0.1680164E-09
 -0.4690458E-02  0.0000000E+00 -0.5050505E-02  0.0000000E+00  0.0000000E+00 -0.1680164E-09
 -0.4611543E-02  0.0000000E+00 -0.5050505E-02  0.0000000E+00  0.0000000E+00 -0.1680164E-09
 -0.4503035E-02  0.0000000E+00 -0.5050505E-02  0.0000000E+00  0.0000000E+00 -0.1680164E-09
 -0.4345206E-02  0.0000000E+00 -0.5050505E-02  0.0000000E+00  0.0000000E+00 -0.1680164E-09
 -0.4187378E-02  0.0000000E+00 -0.5050505E-02  0.0000000E+00  0.0000000E+00 -0.1680164E-09
 -0.3985156E-02  0.0000000E+00 -0.5050505E-02  0.0000000E+00  0.0000000E+00 -0.1680164E-09
 -0.3669499E-02  0.0000000E+00 -0.5050505E-02  0.0000000E+00  0.0000000E+00 -0.1680164E-09
 -0.3353842E-02  0.0000000E+00 -0.5050505E-02  0.0000000E+00  0.0000000E+00 -0.1680164E-09
 -0.2978990E-02  0.0000000E+00 -0.5050505E-02  0.0000000E+00  0.0000000E+00 -0.1680164E-09
 -0.2347676E-02  0.0000000E+00 -0.5050505E-02  0.0000000E+00  0.0000000E+00 -0.1680164E-09
 -0.1716362E-02  0.0000000E+00 -0.5050505E-02  0.0000000E+00  0.0000000E+00 -0.1680164E-09
 -0.1025842E-02  0.0000000E+00 -0.5050505E-02  0.0000000E+00  0.0000000E+00 -0.1680164E-09
  0.2367855E-03  0.0000000E+00 -0.5050505E-02  0.0000000E+00  0.0000000E+00 -0.1680164E-09
  0.1499413E-02  0.0000000E+00 -0.5050505E-02  0.0000000E+00  0.0000000E+00 -0.1680164E-09
  0.2762042E-02  0.0000000E+00 -0.5050505E-02  0.0000000E+00  0.0000000E+00 -0.1680164E-09
 -0.5050505E-02  0.0000000E+00 -0.5050505E-02  0.0000000E+00  0.0000000E+00 -0.1680164E-09
 -0.5050505E-02  0.0000000E+00 -0.5050505E-02  0.0000000E+00  0.0000000E+00 -0.1680164E-09
 -0.5050505E-02  0.0000000E+00 -0.5050505E-02  0.0000000E+00  0.0000000E+00 -0.1680164E-09
 -0.5050505E-02  0.0000000E+00 -0.5050505E-02  0.0000000E+00  0.0000000E+00 -0.1680164E-09
 -0.5050505E-02  0.0000000E+00 -0.5050505E-02  0.0000000E+00  0.0000000E+00 -0.1680164E-09
 -0.5050505E-02  0.0000000E+00 -0.5050505E-02  0.0000000E+00  0.0000000E+00 -0.1680164E-09
 -0.5050505E-02  0.0000000E+00 -0.5050505E-02  0.0000000E+00  0.0000000E+00 -0.1680164E-09
 -0.5050504E-02  0.0000000E+00 -0.5050505E-02  0.0000000E+00  0.0000000E+00 -0.1680164E-09
 -0.5050501E-02  0.0000000E+00 -0.5050505E-02  0.0000000E+00  0.0000000E+00 -0.1680164E-09
 -0.5050495E-02  0.0000000E+00 -0.5050505E-02  0.0000000E+00  0.0000000E+00 -0.1680164E-09
 -0.5050482E-02  0.0000000E+00 -0.5050505E-02  0.1486959E-16  0.0000000E+00 -0.1680164E-09
 -0.5050449E-02  0.0000000E+00 -0.5050505E-02  0.0000000E+00  0.0000000E+00 -0.1680164E-09
 -0.5050376E-02  0.0000000E+00 -0.5050505E-02  0.7413890E-17  0.0000000E+00 -0.1680164E-09
 -0.5050299E-02  0.0000000E+00 -0.5050505E-02  0.0000000E+00  0.0000000E+00 -0.1680164E-09
 -0.5050178E-02  0.0000000E+00 -0.5050505E-02 -0.1482778E-16  0.0000000E+00 -0.1680164E-09
 -0.5050018E-02  0.0000000E+00 -0.5050505E-02  0.7413890E-17  0.0000000E+00 -0.1680164E-09
 -0.5049710E-02  0.0000000E+00 -0.5050505E-02  0.7413890E-17  0.0000000E+00 -0.1680164E-09
 -0.5049253E-02  0.0000000E+00 -0.5050505E-02  0.1486959E-16  0.0000000E+00 -0.1680164E-09
 -0.5048636E-02  0.0000000E+00 -0.5050505E-02  0.7413890E-17  0.0000000E+00 -0.1680164E-09
 -0.5047442E-02  0.0000000E+00 -0.5050505E-02  0.2969737E-16  0.0000000E+00 -0.1680163E-09
 -0.5045727E-02  0.0000000E+00 -0.5050505E-02  0.3711126E-16  0.0000000E+00 -0.1680163E-09
 -0.5043261E-02  0.0000000E+00 -0.5050505E-02 -0.6676683E-16  0.0000000E+00 -0.1680163E-09
 -0.5038714E-02  0.0000000E+00 -0.5050505E-02  0.5202267E-16  0.0000000E+00 -0.1680164E-09
 -0.5032318E-02  0.0000000E+00 -0.5050505E-02 -0.3723670E-16  0.0000000E+00 -0.1680163E-09
 -0.5022454E-02  0.0000000E+00 -0.5050505E-02 -0.4452515E-16  0.0000000E+00 -0.1680164E-09
 -0.5012589E-02  0.0000000E+00 -0.5050505E-02 -0.6689227E-16  0.0000000E+00 -0.1680164E-09
 -0.5002725E-02  0.0000000E+00 -0.5050505E-02 -0.1337845E-15  0.0000000E+00 -0.1680164E-09
 -0.4992860E-02  0.0000000E+00 -0.5050505E-02 -0.2601134E-15  0.0000000E+00 -0.1680165E-09
 -0.4976523E-02  0.0000000E+00 -0.5050505E-02 -0.4534599E-15  0.0000000E+00 -0.1680165E-09
 -0.4956794E-02  0.0000000E+00 -0.5050505E-02 -0.1003342E-14  0.0000000E+00 -0.1680167E-09
 -0.4937066E-02  0.0000000E+00 -0.5050505E-02 -0.1954620E-14  0.0000000E+00 -0.1680171E-09
 -0.4906239E-02  0.0000000E+00 -0.5050505E-02 -0.3381348E-14  0.0000000E+00 -0.1680178E-09
 -0.4866782E-02  0.0000000E+00 -0.5050505E-02 -0.5789261E-14  0.0000000E+00 -0.1680192E-09
 -0.4827325E-02  0.0000000E+00 -0.5050505E-02 -0.9564423E-14  0.0000000E+00 -0.1680216E-09
 -0.4769372E-02  0.0000000E+00 -0.5050505E-02 -0.1550213E-13  0.0000000E+00 -0.1680255E-09
 -0.4690458E-02  0.0000000E+00 -0.5050505E-02 -0.2452379E-13  0.0000000E+00 -0.1680318E-09
 -0.4611543E-02  0.0000000E+00 -0.5050505E-02 -0.3780369E-13  0.0000000E+00 -0.1680418E-09
 -0.4503035E-02  0.0000000E+00 -0.5050505E-02 -0.5671670E-13  0.0000000E+00 -0.1680570E-09
 -0.4345206E-02  0.0000000E+00 -0.5050505E-02 -0.8306895E-13  0.0000000E+00 -0.1680793E-09
 -0.4187378E-02  0.0000000E+00 -0.5050505E-02 -0.1190162E-12  0.0000000E+00 -0.1681109E-09
 -0.3985156E-02  0.0000000E+00 -0.5050505E-02 -0.1677927E-12  0.0000000E+00 -0.1681543E-09
 -0.3669499E-02  0.0000000E+00 -0.5050505E-02 -0.2347071E-12  0.0000000E+00 -0.1682115E-09
 -0.3353842E-02  0.0000000E+00 -0.5050505E-02 -0.3294939E-12  0.0000000E+00 -0.1682839E-09
 -0.2978990E-02  0.0000000E+00 -0.5050505E-02 -0.4703452E-12  0.0000000E+00 -0.1683696E-09
 -0.2347676E-02  0.0000000E+00 -0.5050505E-02 -0.6902705E-12  0.0000000E+00 -0.1684568E-09
 -0.1716362E-02  0.0000000E+00 -0.5050505E-02 -0.1048226E-11  0.0000000E+00 -0.1685058E-09
 -0.1025842E-02  0.0000000E+00 -0.5050505E-02 -0.1642239E-11  0.0000000E+00 -0.1684065E-09
  0.2367855E-03  0.0000000E+00 -0.5050505E-02 -0.2592547E-11  0.0000000E+00 -0.1678846E-09
  0.1499413E-02  0.0000000E+00 -0.5050505E-02 -0.3826125E-11  0.0000000E+00 -0.1663408E-09
  0.5287294E-02  0.0000000E+00 -0.5050505E-02 -0.3989591E-11  0.0000000E+00 -0.1631012E-09
 -0.5050505E-02  0.0000000E+00 -0.5050505E-02 -0.1792101E-12  0.0000000E+00 -0.1660319E-09
 -0.5050505E-02  0.0000000E+00 -0.5050505E-02 -0.1074316E-12  0.0000000E+00 -0.1660074E-09
 -0.5050505E-02  0.0000000E+00 -0.5050505E-02 -0.8171797E-13  0.0000000E+00 -0.1659694E-09
 -0.5050505E-02  0.0000000E+00 -0.5050505E-02 -0.1588368E-12  0.0000000E+00 -0.1659259E-09
 -0.5050505E-02  0.0000000E+00 -0.5050505E-02 -0.1285916E-12  0.0000000E+00 -0.1659319E-09
 -0.5050505E-02  0.0000000E+00 -0.5050505E-02 -0.9641146E-13  0.0000000E+00 -0.1659528E-09
 -0.5050504E-02  0.0000000E+00 -0.5050505E-02 -0.8293029E-13  0.0000000E+00 -0.1659663E-09
 -0.5050501E-02  0.0000000E+00 -0.5050505E-02 -0.7190205E-13  0.0000000E+00 -0.1659750E-09
 -0.5050495E-02  0.0000000E+00 -0.5050505E-02 -0.5753658E-13  0.0000000E+00 -0.1659830E-09
 -0.5050482E-02  0.0000000E+00 -0.5050505E-02 -0.4206321E-13  0.0000000E+00 -0.1659911E-09
 -0.5050449E-02  0.0000000E+00 -0.5050505E-02 -0.2835050E-13  0.0000000E+00 -0.1659985E-09
 -0.5050376E-02  0.0000000E+00 -0.5050505E-02 -0.1809864E-13  0.0000000E+00 -0.1660044E-09
 -0.5050299E-02  0.0000000E+00 -0.5050505E-02 -0.1091471E-13  0.0000000E+00 -0.1660087E-09
 -0.5050178E-02  0.0000000E+00 -0.5050505E-02 -0.6598733E-14  0.0000000E+00 -0.1660117E-09
 -0.5050018E-02  0.0000000E+00 -0.5050505E-02 -0.3221790E-14  0.0000000E+00 -0.1660134E-09
 -0.5049710E-02  0.0000000E+00 -0.5050505E-02 -0.1802930E-14  0.0000000E+00 -0.1660143E-09
 -0.5049253E-02  0.0000000E+00 -0.5050505E-02 -0.7687620E-15  0.0000000E+00 -0.1660147E-09
 -0.5048636E-02  0.0000000E+00 -0.5050505E-02 -0.8567327E-15  0.0000000E+00 -0.1660151E-09
 -0.5047442E-02  0.0000000E+00 -0.5050505E-02 -0.4801598E-15  0.0000000E+00 -0.1660155E-09
 -0.5045727E-02  0.0000000E+00 -0.5050505E-02  0.4945726E-15  0.0000000E+00 -0.1660154E-09
 -0.5043261E-02  0.0000000E+00 -0.5050505E-02 -0.2434548E-15  0.0000000E+00 -0.1660153E-09
 -0.5038714E-02  0.0000000E+00 -0.5050505E-02 -0.1920971E-15  0.0000000E+00 -0.1660156E-09
 -0.5032318E-02  0.0000000E+00 -0.5050505E-02 -0.1995525E-15  0.0000000E+00 -0.1660156E-09
 -0.5022454E-02  0.0000000E+00 -0.5050505E-02 -0.1327860E-15  0.0000000E+00 -0.1660157E-09
 -0.5012589E-02  0.0000000E+00 -0.5050505E-02  0.1401584E-15  0.0000000E+00 -0.1660157E-09
 -0.5002725E-02  0.0000000E+00 -0.5050505E-02 -0.1476138E-15  0.0000000E+00 -0.1660157E-09
 -0.4992860E-02  0.0000000E+00 -0.5050505E-02  0.6643450E-16  0.0000000E+00 -0.1660158E-09
 -0.4976523E-02  0.0000000E+00 -0.5050505E-02  0.1474478E-16  0.0000000E+00 -0.1660157E-09
 -0.4956794E-02  0.0000000E+00 -0.5050505E-02 -0.7372389E-17  0.0000000E+00 -0.1660157E-09
 -0.4937066E-02  0.0000000E+00 -0.5050505E-02  0.0000000E+00  0.0000000E+00 -0.1660157E-09