title = "dataset feddes"
variables = "x", "y", "z", "vx", "vy", "vz"
zone t = "velocities, solution time =  1.200E+01 days        " i =   99, j =   99, k =    1,  f=point
 -0.5050505E-02  0.0000000E+00 -0.5050505E-02 -0.2661730E-14  0.0000000E+00 -0.9818141E-10
 -0.5050505E-02  0.0000000E+00 -0.5050505E-02  0.3246561E-14  0.0000000E+00 -0.9818083E-10
 -0.5050505E-02  0.0000000E+00 -0.5050505E-02  0.8435060E-14  0.0000000E+00 -0.9816914E-10
 -0.5050505E-02  0.0000000E+00 -0.5050505E-02  0.1223646E-13  0.0000000E+00 -0.9814847E-10
 -0.5050505E-02  0.0000000E+00 -0.5050505E-02  0.1609035E-13  0.0000000E+00 -0.9812015E-10
 -0.5050505E-02  0.0000000E+00 -0.5050505E-02  0.1980927E-13  0.0000000E+00 -0.9808425E-10
 -0.5050504E-02  0.0000000E+00 -0.5050505E-02  0.2190866E-13  0.0000000E+00 -0.9804253E-10
 -0.5050501E-02  0.0000000E+00 -0.5050505E-02  0.2490780E-13  0.0000000E+00 -0.9799571E-10
 -0.5050495E-02  0.0000000E+00 -0.5050505E-02  0.2879167E-13  0.0000000E+00 -0.9794201E-10
 -0.5050482E-02  0.0000000E+00 -0.5050505E-02  0.3241312E-13  0.0000000E+00 -0.9788081E-10
 -0.5050449E-02  0.0000000E+00 -0.5050505E-02  0.3574966E-13  0.0000000E+00 -0.9781264E-10
 -0.5050376E-02  0.0000000E+00 -0.5050505E-02  0.3882377E-13  0.0000000E+00 -0.9773807E-10
 -0.5050299E-02  0.0000000E+00 -0.5050505E-02  0.4170294E-13  0.0000000E+00 -0.9765754E-10
 -0.5050178E-02  0.0000000E+00 -0.5050505E-02  0.4440216E-13  0.0000000E+00 -0.9757144E-10
 -0.5050018E-02  0.0000000E+00 -0.5050505E-02  0.4698891E-13  0.0000000E+00 -0.9748005E-10
 -0.5049710E-02  0.0000000E+00 -0.5050505E-02  0.4932823E-13  0.0000000E+00 -0.9738373E-10
 -0.5049253E-02  0.0000000E+00 -0.5050505E-02  0.5155509E-13  0.0000000E+00 -0.9728285E-10
 -0.5048636E-02  0.0000000E+00 -0.5050505E-02  0.5355701E-13  0.0000000E+00 -0.9717774E-10
 -0.5047442E-02  0.0000000E+00 -0.5050505E-02  0.5535649E-13  0.0000000E+00 -0.9706882E-10
 -0.5045727E-02  0.0000000E+00 -0.5050505E-02  0.5695353E-13  0.0000000E+00 -0.9695651E-10
 -0.5043261E-02  0.0000000E+00 -0.5050505E-02  0.5834063E-13  0.0000000E+00 -0.9684122E-10
 -0.5038714E-02  0.0000000E+00 -0.5050505E-02  0.5950279E-13  0.0000000E+00 -0.9672337E-10
 -0.5032318E-02  0.0000000E+00 -0.5050505E-02  0.6041003E-13  0.0000000E+00 -0.9660346E-10
 -0.5022454E-02  0.0000000E+00 -0.5050505E-02  0.6106234E-13  0.0000000E+00 -0.9648199E-10
 -0.5012589E-02  0.0000000E+00 -0.5050505E-02  0.6148971E-13  0.0000000E+00 -0.9635944E-10
 -0.5002725E-02  0.0000000E+00 -0.5050505E-02  0.6164717E-13  0.0000000E+00 -0.9623630E-10
 -0.4992860E-02  0.0000000E+00 -0.5050505E-02  0.6154970E-13  0.0000000E+00 -0.9611310E-10
 -0.4976523E-02  0.0000000E+00 -0.5050505E-02  0.6117481E-13  0.0000000E+00 -0.9599038E-10
 -0.4956794E-02  0.0000000E+00 -0.5050505E-02  0.6051500E-13  0.0000000E+00 -0.9586869E-10
 -0.4937066E-02  0.0000000E+00 -0.5050505E-02  0.5962275E-13  0.0000000E+00 -0.9574855E-10
 -0.4906239E-02  0.0000000E+00 -0.5050505E-02  0.5844560E-13  0.0000000E+00 -0.9563048E-10
 -0.4866782E-02  0.0000000E+00 -0.5050505E-02  0.5699102E-13  0.0000000E+00 -0.9551505E-10
 -0.4827325E-02  0.0000000E+00 -0.5050505E-02  0.5529651E-13  0.0000000E+00 -0.9540276E-10
 -0.4769372E-02  0.0000000E+00 -0.5050505E-02  0.5330208E-13  0.0000000E+00 -0.9529416E-10
 -0.4690458E-02  0.0000000E+00 -0.5050505E-02  0.5109022E-13  0.0000000E+00 -0.9518977E-10
 -0.4611543E-02  0.0000000E+00 -0.5050505E-02  0.4859345E-13  0.0000000E+00 -0.9509008E-10
 -0.4503035E-02  0.0000000E+00 -0.5050505E-02  0.4588673E-13  0.0000000E+00 -0.9499560E-10
 -0.4345206E-02  0.0000000E+00 -0.5050505E-02  0.4289509E-13  0.0000000E+00 -0.9490682E-10
 -0.4187378E-02  0.0000000E+00 -0.5050505E-02  0.3967852E-13  0.0000000E+00 -0.9482425E-10
 -0.3985156E-02  0.0000000E+00 -0.5050505E-02  0.3620703E-13  0.0000000E+00 -0.9474836E-10
 -0.3669499E-02  0.0000000E+00 -0.5050505E-02  0.3246561E-13  0.0000000E+00 -0.9467969E-10
 -0.3353842E-02  0.0000000E+00 -0.5050505E-02  0.2848426E-13  0.0000000E+00 -0.9461874E-10
 -0.2978990E-02  0.0000000E+00 -0.5050505E-02  0.2430797E-13  0.0000000E+00 -0.9456595E-10
 -0.2347676E-02  0.0000000E+00 -0.5050505E-02  0.2184868E-13  0.0000000E+00 -0.9451979E-10
 -0.1716362E-02  0.0000000E+00 -0.5050505E-02  0.1871459E-13  0.0000000E+00 -0.9447923E-10
 -0.1025842E-02  0.0000000E+00 -0.5050505E-02  0.1509313E-13  0.0000000E+00 -0.9444542E-10
  0.2367855E-03  0.0000000E+00 -0.5050505E-02  0.7947701E-14  0.0000000E+00 -0.9442238E-10
  0.1499413E-02  0.0000000E+00 -0.5050505E-02  0.1881956E-14  0.0000000E+00 -0.9441255E-10
  0.2762042E-02  0.0000000E+00 -0.5050505E-02 -0.2241852E-14  0.0000000E+00 -0.9441291E-10
 -0.5050505E-02  0.0000000E+00 -0.5050505E-02 -0.4341244E-14  0.0000000E+00 -0.9441949E-10
 -0.5050505E-02  0.0000000E+00 -0.5050505E-02 -0.7287892E-14  0.0000000E+00 -0.9443112E-10
 -0.5050505E-02  0.0000000E+00 -0.5050505E-02 -0.1230394E-13  0.0000000E+00 -0.9445071E-10
 -0.5050505E-02  0.0000000E+00 -0.5050505E-02 -0.1714754E-13  0.0000000E+00 -0.9448017E-10
 -0.5050505E-02  0.0000000E+00 -0.5050505E-02 -0.2162375E-13  0.0000000E+00 -0.9451894E-10
 -0.5050505E-02  0.0000000E+00 -0.5050505E-02 -0.2579254E-13  0.0000000E+00 -0.9456635E-10
 -0.5050505E-02  0.0000000E+00 -0.5050505E-02 -0.2975889E-13  0.0000000E+00 -0.9462190E-10
 -0.5050504E-02  0.0000000E+00 -0.5050505E-02 -0.3356029E-13  0.0000000E+00 -0.9468522E-10
 -0.5050501E-02  0.0000000E+00 -0.5050505E-02 -0.3716675E-13  0.0000000E+00 -0.9475595E-10
 -0.5050495E-02  0.0000000E+00 -0.5050505E-02 -0.4061575E-13  0.0000000E+00 -0.9483373E-10
 -0.5050482E-02  0.0000000E+00 -0.5050505E-02 -0.4385482E-13  0.0000000E+00 -0.9491820E-10
 -0.5050449E-02  0.0000000E+00 -0.5050505E-02 -0.4691393E-13  0.0000000E+00 -0.9500897E-10
 -0.5050376E-02  0.0000000E+00 -0.5050505E-02 -0.4974061E-13  0.0000000E+00 -0.9510563E-10
 -0.5050299E-02  0.0000000E+00 -0.5050505E-02 -0.5233486E-13  0.0000000E+00 -0.9520770E-10
 -0.5050178E-02  0.0000000E+00 -0.5050505E-02 -0.5471168E-13  0.0000000E+00 -0.9531475E-10
 -0.5050018E-02  0.0000000E+00 -0.5050505E-02 -0.5682606E-13  0.0000000E+00 -0.9542629E-10
 -0.5049710E-02  0.0000000E+00 -0.5050505E-02 -0.5870802E-13  0.0000000E+00 -0.9554182E-10
 -0.5049253E-02  0.0000000E+00 -0.5050505E-02 -0.6034255E-13  0.0000000E+00 -0.9566087E-10
 -0.5048636E-02  0.0000000E+00 -0.5050505E-02 -0.6170715E-13  0.0000000E+00 -0.9578292E-10
 -0.5047442E-02  0.0000000E+00 -0.5050505E-02 -0.6283183E-13  0.0000000E+00 -0.9590746E-10
 -0.5045727E-02  0.0000000E+00 -0.5050505E-02 -0.6368658E-13  0.0000000E+00 -0.9603398E-10
 -0.5043261E-02  0.0000000E+00 -0.5050505E-02 -0.6430140E-13  0.0000000E+00 -0.9616197E-10
 -0.5038714E-02  0.0000000E+00 -0.5050505E-02 -0.6466130E-13  0.0000000E+00 -0.9629093E-10
 -0.5032318E-02  0.0000000E+00 -0.5050505E-02 -0.6479626E-13  0.0000000E+00 -0.9642039E-10
 -0.5022454E-02  0.0000000E+00 -0.5050505E-02 -0.6469129E-13  0.0000000E+00 -0.9654987E-10
 -0.5012589E-02  0.0000000E+00 -0.5050505E-02 -0.6436138E-13  0.0000000E+00 -0.9667893E-10
 -0.5002725E-02  0.0000000E+00 -0.5050505E-02 -0.6382154E-13  0.0000000E+00 -0.9680711E-10
 -0.4992860E-02  0.0000000E+00 -0.5050505E-02 -0.6309425E-13  0.0000000E+00 -0.9693403E-10
 -0.4976523E-02  0.0000000E+00 -0.5050505E-02 -0.6217952E-13  0.0000000E+00 -0.9705930E-10
 -0.4956794E-02  0.0000000E+00 -0.5050505E-02 -0.6111482E-13  0.0000000E+00 -0.9718259E-10
 -0.4937066E-02  0.0000000E+00 -0.5050505E-02 -0.5992267E-13  0.0000000E+00 -0.9730363E-10
 -0.4906239E-02  0.0000000E+00 -0.5050505E-02 -0.5861055E-13  0.0000000E+00 -0.9742216E-10
 -0.4866782E-02  0.0000000E+00 -0.5050505E-02 -0.5721595E-13  0.0000000E+00 -0.9753799E-10
 -0.4827325E-02  0.0000000E+00 -0.5050505E-02 -0.5582135E-13  0.0000000E+00 -0.9765103E-10
 -0.4769372E-02  0.0000000E+00 -0.5050505E-02 -0.5445675E-13  0.0000000E+00 -0.9776131E-10
 -0.4690458E-02  0.0000000E+00 -0.5050505E-02 -0.5319711E-13  0.0000000E+00 -0.9786896E-10
 -0.4611543E-02  0.0000000E+00 -0.5050505E-02 -0.5216991E-13  0.0000000E+00 -0.9797433E-10
 -0.4503035E-02  0.0000000E+00 -0.5050505E-02 -0.5155509E-13  0.0000000E+00 -0.9807805E-10
 -0.4345206E-02  0.0000000E+00 -0.5050505E-02 -0.5160008E-13  0.0000000E+00 -0.9818121E-10
 -0.4187378E-02  0.0000000E+00 -0.5050505E-02 -0.5267976E-13  0.0000000E+00 -0.9828549E-10
 -0.3985156E-02  0.0000000E+00 -0.5050505E-02 -0.5553644E-13  0.0000000E+00 -0.9839370E-10
 -0.3669499E-02  0.0000000E+00 -0.5050505E-02 -0.6127978E-13  0.0000000E+00 -0.9851052E-10
 -0.3353842E-02  0.0000000E+00 -0.5050505E-02 -0.7223411E-13  0.0000000E+00 -0.9864403E-10
 -0.2978990E-02  0.0000000E+00 -0.5050505E-02 -0.9280066E-13  0.0000000E+00 -0.9880907E-10
 -0.2347676E-02  0.0000000E+00 -0.5050505E-02 -0.1328916E-12  0.0000000E+00 -0.9903476E-10
 -0.1716362E-02  0.0000000E+00 -0.5050505E-02 -0.2160875E-12  0.0000000E+00 -0.9938374E-10
 -0.1025842E-02  0.0000000E+00 -0.5050505E-02 -0.4056177E-12  0.0000000E+00 -0.1000054E-09
  0.2367855E-03  0.0000000E+00 -0.5050505E-02 -0.8891378E-12  0.0000000E+00 -0.1013002E-09
  0.1499413E-02  0.0000000E+00 -0.5050505E-02 -0.2284949E-11  0.0000000E+00 -0.1044743E-09
  0.5287294E-02  0.0000000E+00 -0.5050505E-02 -0.3702203E-10  0.0000000E+00 -0.8355687E-10
 -0.5050505E-02  0.0000000E+00 -0.5050505E-02 -0.5107201E-14  0.0000000E+00 -0.9803389E-10
 -0.5050505E-02  0.0000000E+00 -0.5050505E-02  0.1067990E-13  0.0000000E+00 -0.9802948E-10
 -0.5050505E-02  0.0000000E+00 -0.5050505E-02  0.2576211E-13  0.0000000E+00 -0.9801634E-10
 -0.5050505E-02  0.0000000E+00 -0.5050505E-02  0.3706395E-13  0.0000000E+00 -0.9799474E-10
 -0.5050505E-02  0.0000000E+00 -0.5050505E-02  0.4853757E-13  0.0000000E+00 -0.9796563E-10
 -0.5050505E-02  0.0000000E+00 -0.5050505E-02  0.5916047E-13  0.0000000E+00 -0.9792953E-10
 -0.5050504E-02  0.0000000E+00 -0.5050505E-02  0.6569601E-13  0.0000000E+00 -0.9788788E-10
 -0.5050501E-02  0.0000000E+00 -0.5050505E-02  0.7556930E-13  0.0000000E+00 -0.9783998E-10
 -0.5050495E-02  0.0000000E+00 -0.5050505E-02  0.8699835E-13  0.0000000E+00 -0.9778451E-10
 -0.5050482E-02  0.0000000E+00 -0.5050505E-02  0.9775491E-13  0.0000000E+00 -0.9772182E-10
 -0.5050449E-02  0.0000000E+00 -0.5050505E-02  0.1077047E-12  0.0000000E+00 -0.9765231E-10
 -0.5050376E-02  0.0000000E+00 -0.5050505E-02  0.1169446E-12  0.0000000E+00 -0.9757638E-10
 -0.5050299E-02  0.0000000E+00 -0.5050505E-02  0.1256392E-12  0.0000000E+00 -0.9749440E-10
 -0.5050178E-02  0.0000000E+00 -0.5050505E-02  0.1338184E-12  0.0000000E+00 -0.9740667E-10
 -0.5050018E-02  0.0000000E+00 -0.5050505E-02  0.1415198E-12  0.0000000E+00 -0.9731360E-10
 -0.5049710E-02  0.0000000E+00 -0.5050505E-02  0.1486755E-12  0.0000000E+00 -0.9721550E-10
 -0.5049253E-02  0.0000000E+00 -0.5050505E-02  0.1553087E-12  0.0000000E+00 -0.9711271E-10
 -0.5048636E-02  0.0000000E+00 -0.5050505E-02  0.1613665E-12  0.0000000E+00 -0.9700567E-10
 -0.5047442E-02  0.0000000E+00 -0.5050505E-02  0.1668043E-12  0.0000000E+00 -0.9689472E-10
 -0.5045727E-02  0.0000000E+00 -0.5050505E-02  0.1716297E-12  0.0000000E+00 -0.9678027E-10
 -0.5043261E-02  0.0000000E+00 -0.5050505E-02  0.1758052E-12  0.0000000E+00 -0.9666278E-10
 -0.5038714E-02  0.0000000E+00 -0.5050505E-02  0.1792861E-12  0.0000000E+00 -0.9654271E-10
 -0.5032318E-02  0.0000000E+00 -0.5050505E-02  0.1820275E-12  0.0000000E+00 -0.9642055E-10
 -0.5022454E-02  0.0000000E+00 -0.5050505E-02  0.1840293E-12  0.0000000E+00 -0.9629675E-10
 -0.5012589E-02  0.0000000E+00 -0.5050505E-02  0.1853066E-12  0.0000000E+00 -0.9617183E-10
 -0.5002725E-02  0.0000000E+00 -0.5050505E-02  0.1857772E-12  0.0000000E+00 -0.9604633E-10
 -0.4992860E-02  0.0000000E+00 -0.5050505E-02  0.1854784E-12  0.0000000E+00 -0.9592078E-10
 -0.4976523E-02  0.0000000E+00 -0.5050505E-02  0.1843579E-12  0.0000000E+00 -0.9579570E-10
 -0.4956794E-02  0.0000000E+00 -0.5050505E-02  0.1824083E-12  0.0000000E+00 -0.9567163E-10
 -0.4937066E-02  0.0000000E+00 -0.5050505E-02  0.1796894E-12  0.0000000E+00 -0.9554913E-10
 -0.4906239E-02  0.0000000E+00 -0.5050505E-02  0.1761488E-12  0.0000000E+00 -0.9542877E-10
 -0.4866782E-02  0.0000000E+00 -0.5050505E-02  0.1717790E-12  0.0000000E+00 -0.9531107E-10
 -0.4827325E-02  0.0000000E+00 -0.5050505E-02  0.1666474E-12  0.0000000E+00 -0.9519658E-10
 -0.4769372E-02  0.0000000E+00 -0.5050505E-02  0.1606791E-12  0.0000000E+00 -0.9508584E-10
 -0.4690458E-02  0.0000000E+00 -0.5050505E-02  0.1539789E-12  0.0000000E+00 -0.9497938E-10
 -0.4611543E-02  0.0000000E+00 -0.5050505E-02  0.1465167E-12  0.0000000E+00 -0.9487770E-10
 -0.4503035E-02  0.0000000E+00 -0.5050505E-02  0.1383225E-12  0.0000000E+00 -0.9478129E-10
 -0.4345206E-02  0.0000000E+00 -0.5050505E-02  0.1293440E-12  0.0000000E+00 -0.9469068E-10
 -0.4187378E-02  0.0000000E+00 -0.5050505E-02  0.1196559E-12  0.0000000E+00 -0.9460637E-10
 -0.3985156E-02  0.0000000E+00 -0.5050505E-02  0.1091536E-12  0.0000000E+00 -0.9452890E-10
 -0.3669499E-02  0.0000000E+00 -0.5050505E-02  0.9788941E-13  0.0000000E+00 -0.9445882E-10
 -0.3353842E-02  0.0000000E+00 -0.5050505E-02  0.8599010E-13  0.0000000E+00 -0.9439650E-10
 -0.2978990E-02  0.0000000E+00 -0.5050505E-02  0.7393313E-13  0.0000000E+00 -0.9434186E-10
 -0.2347676E-02  0.0000000E+00 -0.5050505E-02  0.6593425E-13  0.0000000E+00 -0.9429405E-10
 -0.1716362E-02  0.0000000E+00 -0.5050505E-02  0.5556067E-13  0.0000000E+00 -0.9425345E-10
 -0.1025842E-02  0.0000000E+00 -0.5050505E-02  0.4484139E-13  0.0000000E+00 -0.9422047E-10
  0.2367855E-03  0.0000000E+00 -0.5050505E-02  0.2374634E-13  0.0000000E+00 -0.9419784E-10
  0.1499413E-02  0.0000000E+00 -0.5050505E-02  0.6295732E-14  0.0000000E+00 -0.9418740E-10
  0.2762042E-02  0.0000000E+00 -0.5050505E-02 -0.6006982E-14  0.0000000E+00 -0.9418639E-10
 -0.5050505E-02  0.0000000E+00 -0.5050505E-02 -0.1290785E-13  0.0000000E+00 -0.9419218E-10
 -0.5050505E-02  0.0000000E+00 -0.5050505E-02 -0.2231113E-13  0.0000000E+00 -0.9420421E-10
 -0.5050505E-02  0.0000000E+00 -0.5050505E-02 -0.3714634E-13  0.0000000E+00 -0.9422459E-10
 -0.5050505E-02  0.0000000E+00 -0.5050505E-02 -0.5163017E-13  0.0000000E+00 -0.9425463E-10
 -0.5050505E-02  0.0000000E+00 -0.5050505E-02 -0.6506813E-13  0.0000000E+00 -0.9429400E-10
 -0.5050505E-02  0.0000000E+00 -0.5050505E-02 -0.7766187E-13  0.0000000E+00 -0.9434217E-10
 -0.5050505E-02  0.0000000E+00 -0.5050505E-02 -0.8965056E-13  0.0000000E+00 -0.9439869E-10
 -0.5050504E-02  0.0000000E+00 -0.5050505E-02 -0.1010642E-12  0.0000000E+00 -0.9446312E-10
 -0.5050501E-02  0.0000000E+00 -0.5050505E-02 -0.1119624E-12  0.0000000E+00 -0.9453509E-10
 -0.5050495E-02  0.0000000E+00 -0.5050505E-02 -0.1223526E-12  0.0000000E+00 -0.9461428E-10
 -0.5050482E-02  0.0000000E+00 -0.5050505E-02 -0.1321303E-12  0.0000000E+00 -0.9470029E-10
 -0.5050449E-02  0.0000000E+00 -0.5050505E-02 -0.1413180E-12  0.0000000E+00 -0.9479272E-10
 -0.5050376E-02  0.0000000E+00 -0.5050505E-02 -0.1498558E-12  0.0000000E+00 -0.9489112E-10
 -0.5050299E-02  0.0000000E+00 -0.5050505E-02 -0.1576690E-12  0.0000000E+00 -0.9499507E-10
 -0.5050178E-02  0.0000000E+00 -0.5050505E-02 -0.1648473E-12  0.0000000E+00 -0.9510410E-10
 -0.5050018E-02  0.0000000E+00 -0.5050505E-02 -0.1712189E-12  0.0000000E+00 -0.9521771E-10
 -0.5049710E-02  0.0000000E+00 -0.5050505E-02 -0.1768809E-12  0.0000000E+00 -0.9533539E-10
 -0.5049253E-02  0.0000000E+00 -0.5050505E-02 -0.1817960E-12  0.0000000E+00 -0.9545664E-10
 -0.5048636E-02  0.0000000E+00 -0.5050505E-02 -0.1859192E-12  0.0000000E+00 -0.9558094E-10
 -0.5047442E-02  0.0000000E+00 -0.5050505E-02 -0.1892880E-12  0.0000000E+00 -0.9570777E-10
 -0.5045727E-02  0.0000000E+00 -0.5050505E-02 -0.1918725E-12  0.0000000E+00 -0.9583660E-10
 -0.5043261E-02  0.0000000E+00 -0.5050505E-02 -0.1937250E-12  0.0000000E+00 -0.9596694E-10
 -0.5038714E-02  0.0000000E+00 -0.5050505E-02 -0.1948155E-12  0.0000000E+00 -0.9609828E-10
 -0.5032318E-02  0.0000000E+00 -0.5050505E-02 -0.1952040E-12  0.0000000E+00 -0.9623011E-10
 -0.5022454E-02  0.0000000E+00 -0.5050505E-02 -0.1948753E-12  0.0000000E+00 -0.9636195E-10
 -0.5012589E-02  0.0000000E+00 -0.5050505E-02 -0.1938595E-12  0.0000000E+00 -0.9649330E-10
 -0.5002725E-02  0.0000000E+00 -0.5050505E-02 -0.1922535E-12  0.0000000E+00 -0.9662377E-10
 -0.4992860E-02  0.0000000E+00 -0.5050505E-02 -0.1900425E-12  0.0000000E+00 -0.9675295E-10
 -0.4976523E-02  0.0000000E+00 -0.5050505E-02 -0.1872788E-12  0.0000000E+00 -0.9688042E-10
 -0.4956794E-02  0.0000000E+00 -0.5050505E-02 -0.1840519E-12  0.0000000E+00 -0.9700586E-10
 -0.4937066E-02  0.0000000E+00 -0.5050505E-02 -0.1803919E-12  0.0000000E+00 -0.9712891E-10
 -0.4906239E-02  0.0000000E+00 -0.5050505E-02 -0.1764181E-12  0.0000000E+00 -0.9724932E-10
 -0.4866782E-02  0.0000000E+00 -0.5050505E-02 -0.1721978E-12  0.0000000E+00 -0.9736693E-10
 -0.4827325E-02  0.0000000E+00 -0.5050505E-02 -0.1679104E-12  0.0000000E+00 -0.9748160E-10
 -0.4769372E-02  0.0000000E+00 -0.5050505E-02 -0.1637052E-12  0.0000000E+00 -0.9759328E-10
 -0.4690458E-02  0.0000000E+00 -0.5050505E-02 -0.1597913E-12  0.0000000E+00 -0.9770207E-10
 -0.4611543E-02  0.0000000E+00 -0.5050505E-02 -0.1565199E-12  0.0000000E+00 -0.9780824E-10
 -0.4503035E-02  0.0000000E+00 -0.5050505E-02 -0.1543618E-12  0.0000000E+00 -0.9791226E-10
 -0.4345206E-02  0.0000000E+00 -0.5050505E-02 -0.1540414E-12  0.0000000E+00 -0.9801493E-10
 -0.4187378E-02  0.0000000E+00 -0.5050505E-02 -0.1565675E-12  0.0000000E+00 -0.9811756E-10
 -0.3985156E-02  0.0000000E+00 -0.5050505E-02 -0.1638305E-12  0.0000000E+00 -0.9822214E-10
 -0.3669499E-02  0.0000000E+00 -0.5050505E-02 -0.1787891E-12  0.0000000E+00 -0.9833178E-10
 -0.3353842E-02  0.0000000E+00 -0.5050505E-02 -0.2069661E-12  0.0000000E+00 -0.9845126E-10
 -0.2978990E-02  0.0000000E+00 -0.5050505E-02 -0.2586677E-12  0.0000000E+00 -0.9858775E-10
 -0.2347676E-02  0.0000000E+00 -0.5050505E-02 -0.3549000E-12  0.0000000E+00 -0.9875120E-10
 -0.1716362E-02  0.0000000E+00 -0.5050505E-02 -0.5406939E-12  0.0000000E+00 -0.9895080E-10
 -0.1025842E-02  0.0000000E+00 -0.5050505E-02 -0.9201134E-12  0.0000000E+00 -0.9917169E-10
  0.2367855E-03  0.0000000E+00 -0.5050505E-02 -0.1748997E-11  0.0000000E+00 -0.9925856E-10
  0.1499413E-02  0.0000000E+00 -0.5050505E-02 -0.3694890E-11  0.0000000E+00 -0.9837211E-10
  0.5287294E-02  0.0000000E+00 -0.5050505E-02 -0.8577513E-11  0.0000000E+00 -0.9247612E-10
 -0.5050505E-02  0.0000000E+00 -0.5050505E-02 -0.3616865E-14  0.0000000E+00 -0.9772871E-10
 -0.5050505E-02  0.0000000E+00 -0.5050505E-02  0.2003695E-13  0.0000000E+00 -0.9772224E-10
 -0.5050505E-02  0.0000000E+00 -0.5050505E-02  0.4413568E-13  0.0000000E+00 -0.9770745E-10
 -0.5050505E-02  0.0000000E+00 -0.5050505E-02  0.6263833E-13  0.0000000E+00 -0.9768475E-10
 -0.5050505E-02  0.0000000E+00 -0.5050505E-02  0.8178666E-13  0.0000000E+00 -0.9765455E-10
 -0.5050505E-02  0.0000000E+00 -0.5050505E-02  0.9815818E-13  0.0000000E+00 -0.9761780E-10
 -0.5050504E-02  0.0000000E+00 -0.5050505E-02  0.1098599E-12  0.0000000E+00 -0.9757560E-10
 -0.5050501E-02  0.0000000E+00 -0.5050505E-02  0.1284406E-12  0.0000000E+00 -0.9752566E-10
 -0.5050495E-02  0.0000000E+00 -0.5050505E-02  0.1471882E-12  0.0000000E+00 -0.9746716E-10
 -0.5050482E-02  0.0000000E+00 -0.5050505E-02  0.1648436E-12  0.0000000E+00 -0.9740153E-10
 -0.5050449E-02  0.0000000E+00 -0.5050505E-02  0.1813618E-12  0.0000000E+00 -0.9732915E-10
 -0.5050376E-02  0.0000000E+00 -0.5050505E-02  0.1968543E-12  0.0000000E+00 -0.9725024E-10
 -0.5050299E-02  0.0000000E+00 -0.5050505E-02  0.2114775E-12  0.0000000E+00 -0.9716512E-10
 -0.5050178E-02  0.0000000E+00 -0.5050505E-02  0.2252610E-12  0.0000000E+00 -0.9707411E-10
 -0.5050018E-02  0.0000000E+00 -0.5050505E-02  0.2381972E-12  0.0000000E+00 -0.9697752E-10
 -0.5049710E-02  0.0000000E+00 -0.5050505E-02  0.2502792E-12  0.0000000E+00 -0.9687571E-10
 -0.5049253E-02  0.0000000E+00 -0.5050505E-02  0.2614322E-12  0.0000000E+00 -0.9676906E-10
 -0.5048636E-02  0.0000000E+00 -0.5050505E-02  0.2716416E-12  0.0000000E+00 -0.9665793E-10
 -0.5047442E-02  0.0000000E+00 -0.5050505E-02  0.2808256E-12  0.0000000E+00 -0.9654274E-10
 -0.5045727E-02  0.0000000E+00 -0.5050505E-02  0.2889619E-12  0.0000000E+00 -0.9642394E-10
 -0.5043261E-02  0.0000000E+00 -0.5050505E-02  0.2959837E-12  0.0000000E+00 -0.9630197E-10
 -0.5038714E-02  0.0000000E+00 -0.5050505E-02  0.3018314E-12  0.0000000E+00 -0.9617732E-10
 -0.5032318E-02  0.0000000E+00 -0.5050505E-02  0.3064828E-12  0.0000000E+00 -0.9605045E-10
 -0.5022454E-02  0.0000000E+00 -0.5050505E-02  0.3098933E-12  0.0000000E+00 -0.9592188E-10
 -0.5012589E-02  0.0000000E+00 -0.5050505E-02  0.3120111E-12  0.0000000E+00 -0.9579215E-10
 -0.5002725E-02  0.0000000E+00 -0.5050505E-02  0.3128432E-12  0.0000000E+00 -0.9566180E-10
 -0.4992860E-02  0.0000000E+00 -0.5050505E-02  0.3123231E-12  0.0000000E+00 -0.9553136E-10
 -0.4976523E-02  0.0000000E+00 -0.5050505E-02  0.3104506E-12  0.0000000E+00 -0.9540143E-10
 -0.4956794E-02  0.0000000E+00 -0.5050505E-02  0.3072183E-12  0.0000000E+00 -0.9527254E-10
 -0.4937066E-02  0.0000000E+00 -0.5050505E-02  0.3026263E-12  0.0000000E+00 -0.9514526E-10
 -0.4906239E-02  0.0000000E+00 -0.5050505E-02  0.2966819E-12  0.0000000E+00 -0.9502015E-10
 -0.4866782E-02  0.0000000E+00 -0.5050505E-02  0.2893332E-12  0.0000000E+00 -0.9489782E-10
 -0.4827325E-02  0.0000000E+00 -0.5050505E-02  0.2806694E-12  0.0000000E+00 -0.9477882E-10
 -0.4769372E-02  0.0000000E+00 -0.5050505E-02  0.2706754E-12  0.0000000E+00 -0.9466371E-10
 -0.4690458E-02  0.0000000E+00 -0.5050505E-02  0.2593959E-12  0.0000000E+00 -0.9455299E-10
 -0.4611543E-02  0.0000000E+00 -0.5050505E-02  0.2468683E-12  0.0000000E+00 -0.9444722E-10
 -0.4503035E-02  0.0000000E+00 -0.5050505E-02  0.2330551E-12  0.0000000E+00 -0.9434695E-10
 -0.4345206E-02  0.0000000E+00 -0.5050505E-02  0.2180084E-12  0.0000000E+00 -0.9425265E-10
 -0.4187378E-02  0.0000000E+00 -0.5050505E-02  0.2017060E-12  0.0000000E+00 -0.9416486E-10
 -0.3985156E-02  0.0000000E+00 -0.5050505E-02  0.1840808E-12  0.0000000E+00 -0.9408406E-10
 -0.3669499E-02  0.0000000E+00 -0.5050505E-02  0.1651480E-12  0.0000000E+00 -0.9401080E-10
 -0.3353842E-02  0.0000000E+00 -0.5050505E-02  0.1452270E-12  0.0000000E+00 -0.9394559E-10
 -0.2978990E-02  0.0000000E+00 -0.5050505E-02  0.1262181E-12  0.0000000E+00 -0.9388781E-10
 -0.2347676E-02  0.0000000E+00 -0.5050505E-02  0.1090090E-12  0.0000000E+00 -0.9383948E-10
 -0.1716362E-02  0.0000000E+00 -0.5050505E-02  0.9371062E-13  0.0000000E+00 -0.9379817E-10
 -0.1025842E-02  0.0000000E+00 -0.5050505E-02  0.7417970E-13  0.0000000E+00 -0.9376309E-10
  0.2367855E-03  0.0000000E+00 -0.5050505E-02  0.3909308E-13  0.0000000E+00 -0.9374066E-10
  0.1499413E-02  0.0000000E+00 -0.5050505E-02  0.1190181E-13  0.0000000E+00 -0.9372997E-10
  0.2762042E-02  0.0000000E+00 -0.5050505E-02 -0.8524848E-14  0.0000000E+00 -0.9372789E-10
 -0.5050505E-02  0.0000000E+00 -0.5050505E-02 -0.2121470E-13  0.0000000E+00 -0.9373304E-10
 -0.5050505E-02  0.0000000E+00 -0.5050505E-02 -0.3808785E-13  0.0000000E+00 -0.9374529E-10
 -0.5050505E-02  0.0000000E+00 -0.5050505E-02 -0.6268290E-13  0.0000000E+00 -0.9376655E-10
 -0.5050505E-02  0.0000000E+00 -0.5050505E-02 -0.8681728E-13  0.0000000E+00 -0.9379774E-10
 -0.5050505E-02  0.0000000E+00 -0.5050505E-02 -0.1093687E-12  0.0000000E+00 -0.9383851E-10
 -0.5050505E-02  0.0000000E+00 -0.5050505E-02 -0.1305974E-12  0.0000000E+00 -0.9388838E-10
 -0.5050505E-02  0.0000000E+00 -0.5050505E-02 -0.1508082E-12  0.0000000E+00 -0.9394689E-10
 -0.5050504E-02  0.0000000E+00 -0.5050505E-02 -0.1700306E-12  0.0000000E+00 -0.9401365E-10
 -0.5050501E-02  0.0000000E+00 -0.5050505E-02 -0.1884135E-12  0.0000000E+00 -0.9408829E-10
 -0.5050495E-02  0.0000000E+00 -0.5050505E-02 -0.2058825E-12  0.0000000E+00 -0.9417040E-10
 -0.5050482E-02  0.0000000E+00 -0.5050505E-02 -0.2223780E-12  0.0000000E+00 -0.9425959E-10
 -0.5050449E-02  0.0000000E+00 -0.5050505E-02 -0.2378332E-12  0.0000000E+00 -0.9435547E-10
 -0.5050376E-02  0.0000000E+00 -0.5050505E-02 -0.2521963E-12  0.0000000E+00 -0.9445755E-10
 -0.5050299E-02  0.0000000E+00 -0.5050505E-02 -0.2654001E-12  0.0000000E+00 -0.9456540E-10
 -0.5050178E-02  0.0000000E+00 -0.5050505E-02 -0.2774449E-12  0.0000000E+00 -0.9467851E-10
 -0.5050018E-02  0.0000000E+00 -0.5050505E-02 -0.2881967E-12  0.0000000E+00 -0.9479636E-10
 -0.5049710E-02  0.0000000E+00 -0.5050505E-02 -0.2977299E-12  0.0000000E+00 -0.9491846E-10
 -0.5049253E-02  0.0000000E+00 -0.5050505E-02 -0.3059851E-12  0.0000000E+00 -0.9504426E-10
 -0.5048636E-02  0.0000000E+00 -0.5050505E-02 -0.3129178E-12  0.0000000E+00 -0.9517321E-10
 -0.5047442E-02  0.0000000E+00 -0.5050505E-02 -0.3185797E-12  0.0000000E+00 -0.9530478E-10
 -0.5045727E-02  0.0000000E+00 -0.5050505E-02 -0.3229340E-12  0.0000000E+00 -0.9543844E-10
 -0.5043261E-02  0.0000000E+00 -0.5050505E-02 -0.3260251E-12  0.0000000E+00 -0.9557362E-10
 -0.5038714E-02  0.0000000E+00 -0.5050505E-02 -0.3278604E-12  0.0000000E+00 -0.9570981E-10
 -0.5032318E-02  0.0000000E+00 -0.5050505E-02 -0.3284846E-12  0.0000000E+00 -0.9584649E-10
 -0.5022454E-02  0.0000000E+00 -0.5050505E-02 -0.3278902E-12  0.0000000E+00 -0.9598314E-10
 -0.5012589E-02  0.0000000E+00 -0.5050505E-02 -0.3261812E-12  0.0000000E+00 -0.9611931E-10
 -0.5002725E-02  0.0000000E+00 -0.5050505E-02 -0.3234469E-12  0.0000000E+00 -0.9625452E-10
 -0.4992860E-02  0.0000000E+00 -0.5050505E-02 -0.3196723E-12  0.0000000E+00 -0.9638831E-10
 -0.4976523E-02  0.0000000E+00 -0.5050505E-02 -0.3149690E-12  0.0000000E+00 -0.9652027E-10
 -0.4956794E-02  0.0000000E+00 -0.5050505E-02 -0.3094557E-12  0.0000000E+00 -0.9665002E-10
 -0.4937066E-02  0.0000000E+00 -0.5050505E-02 -0.3032068E-12  0.0000000E+00 -0.9677723E-10
 -0.4906239E-02  0.0000000E+00 -0.5050505E-02 -0.2963934E-12  0.0000000E+00 -0.9690161E-10
 -0.4866782E-02  0.0000000E+00 -0.5050505E-02 -0.2891712E-12  0.0000000E+00 -0.9702290E-10
 -0.4827325E-02  0.0000000E+00 -0.5050505E-02 -0.2817337E-12  0.0000000E+00 -0.9714094E-10
 -0.4769372E-02  0.0000000E+00 -0.5050505E-02 -0.2743483E-12  0.0000000E+00 -0.9725559E-10
 -0.4690458E-02  0.0000000E+00 -0.5050505E-02 -0.2673718E-12  0.0000000E+00 -0.9736684E-10
 -0.4611543E-02  0.0000000E+00 -0.5050505E-02 -0.2612798E-12  0.0000000E+00 -0.9747478E-10
 -0.4503035E-02  0.0000000E+00 -0.5050505E-02 -0.2567710E-12  0.0000000E+00 -0.9757968E-10
 -0.4345206E-02  0.0000000E+00 -0.5050505E-02 -0.2548116E-12  0.0000000E+00 -0.9768192E-10
 -0.4187378E-02  0.0000000E+00 -0.5050505E-02 -0.2568512E-12  0.0000000E+00 -0.9778208E-10
 -0.3985156E-02  0.0000000E+00 -0.5050505E-02 -0.2652610E-12  0.0000000E+00 -0.9788102E-10
 -0.3669499E-02  0.0000000E+00 -0.5050505E-02 -0.2837436E-12  0.0000000E+00 -0.9797968E-10
 -0.3353842E-02  0.0000000E+00 -0.5050505E-02 -0.3184408E-12  0.0000000E+00 -0.9807880E-10
 -0.2978990E-02  0.0000000E+00 -0.5050505E-02 -0.3798912E-12  0.0000000E+00 -0.9817762E-10
 -0.2347676E-02  0.0000000E+00 -0.5050505E-02 -0.4864619E-12  0.0000000E+00 -0.9827040E-10
 -0.1716362E-02  0.0000000E+00 -0.5050505E-02 -0.6697749E-12  0.0000000E+00 -0.9833647E-10
 -0.1025842E-02  0.0000000E+00 -0.5050505E-02 -0.9812520E-12  0.0000000E+00 -0.9831400E-10
  0.2367855E-03  0.0000000E+00 -0.5050505E-02 -0.1484835E-11  0.0000000E+00 -0.9803908E-10
  0.1499413E-02  0.0000000E+00 -0.5050505E-02 -0.2155177E-11  0.0000000E+00 -0.9715223E-10
  0.5287294E-02  0.0000000E+00 -0.5050505E-02 -0.2295895E-11  0.0000000E+00 -0.9529581E-10
 -0.5050505E-02  0.0000000E+00 -0.5050505E-02 -0.6921894E-15  0.0000000E+00 -0.9726625E-10
 -0.5050505E-02  0.0000000E+00 -0.5050505E-02  0.3120415E-13  0.0000000E+00 -0.9725854E-10
 -0.5050505E-02  0.0000000E+00 -0.5050505E-02  0.6389912E-13  0.0000000E+00 -0.9724204E-10
 -0.5050505E-02  0.0000000E+00 -0.5050505E-02  0.8887201E-13  0.0000000E+00 -0.9721814E-10
 -0.5050505E-02  0.0000000E+00 -0.5050505E-02  0.1161480E-12  0.0000000E+00 -0.9718694E-10
 -0.5050505E-02  0.0000000E+00 -0.5050505E-02  0.1351333E-12  0.0000000E+00 -0.9715134E-10
 -0.5050504E-02  0.0000000E+00 -0.5050505E-02  0.1576377E-12  0.0000000E+00 -0.9710763E-10
 -0.5050501E-02  0.0000000E+00 -0.5050505E-02  0.1846640E-12  0.0000000E+00 -0.9705223E-10
 -0.5050495E-02  0.0000000E+00 -0.5050505E-02  0.2105522E-12  0.0000000E+00 -0.9698960E-10
 -0.5050482E-02  0.0000000E+00 -0.5050505E-02  0.2350653E-12  0.0000000E+00 -0.9691989E-10
 -0.5050449E-02  0.0000000E+00 -0.5050505E-02  0.2582406E-12  0.0000000E+00 -0.9684324E-10
 -0.5050376E-02  0.0000000E+00 -0.5050505E-02  0.2801667E-12  0.0000000E+00 -0.9675983E-10
 -0.5050299E-02  0.0000000E+00 -0.5050505E-02  0.3008955E-12  0.0000000E+00 -0.9666994E-10
 -0.5050178E-02  0.0000000E+00 -0.5050505E-02  0.3205009E-12  0.0000000E+00 -0.9657384E-10
 -0.5050018E-02  0.0000000E+00 -0.5050505E-02  0.3389388E-12  0.0000000E+00 -0.9647186E-10
 -0.5049710E-02  0.0000000E+00 -0.5050505E-02  0.3561056E-12  0.0000000E+00 -0.9636436E-10
 -0.5049253E-02  0.0000000E+00 -0.5050505E-02  0.3720235E-12  0.0000000E+00 -0.9625173E-10
 -0.5048636E-02  0.0000000E+00 -0.5050505E-02  0.3865594E-12  0.0000000E+00 -0.9613437E-10
 -0.5047442E-02  0.0000000E+00 -0.5050505E-02  0.3996396E-12  0.0000000E+00 -0.9601272E-10
 -0.5045727E-02  0.0000000E+00 -0.5050505E-02  0.4112343E-12  0.0000000E+00 -0.9588725E-10
 -0.5043261E-02  0.0000000E+00 -0.5050505E-02  0.4212402E-12  0.0000000E+00 -0.9575841E-10
 -0.5038714E-02  0.0000000E+00 -0.5050505E-02  0.4295908E-12  0.0000000E+00 -0.9562670E-10
 -0.5032318E-02  0.0000000E+00 -0.5050505E-02  0.4362196E-12  0.0000000E+00 -0.9549266E-10
 -0.5022454E-02  0.0000000E+00 -0.5050505E-02  0.4410969E-12  0.0000000E+00 -0.9535685E-10
 -0.5012589E-02  0.0000000E+00 -0.5050505E-02  0.4441488E-12  0.0000000E+00 -0.9521974E-10
 -0.5002725E-02  0.0000000E+00 -0.5050505E-02  0.4453386E-12  0.0000000E+00 -0.9508196E-10
 -0.4992860E-02  0.0000000E+00 -0.5050505E-02  0.4446217E-12  0.0000000E+00 -0.9494410E-10
 -0.4976523E-02  0.0000000E+00 -0.5050505E-02  0.4419835E-12  0.0000000E+00 -0.9480672E-10
 -0.4956794E-02  0.0000000E+00 -0.5050505E-02  0.4374091E-12  0.0000000E+00 -0.9467042E-10
 -0.4937066E-02  0.0000000E+00 -0.5050505E-02  0.4308986E-12  0.0000000E+00 -0.9453583E-10