title = "dataset feddes"
variables = "x", "y", "z", "vx", "vy", "vz"
zone t = "velocities, solution time =  2.200E+01 days        " i =   99, j =   99, k =    1,  f=point
 -0.5050505E-02  0.0000000E+00 -0.5050505E-02  0.1679889E-12  0.0000000E+00  0.2348942E-08
 -0.5050505E-02  0.0000000E+00 -0.5050505E-02  0.7174899E-12  0.0000000E+00  0.2349832E-08
 -0.5050505E-02  0.0000000E+00 -0.5050505E-02  0.1347465E-11  0.0000000E+00  0.2351909E-08
 -0.5050505E-02  0.0000000E+00 -0.5050505E-02  0.1943648E-11  0.0000000E+00  0.2355219E-08
 -0.5050505E-02  0.0000000E+00 -0.5050505E-02  0.2514135E-11  0.0000000E+00  0.2359702E-08
 -0.5050505E-02  0.0000000E+00 -0.5050505E-02  0.3065353E-11  0.0000000E+00  0.2365313E-08
 -0.5050504E-02  0.0000000E+00 -0.5050505E-02  0.3600106E-11  0.0000000E+00  0.2372016E-08
 -0.5050501E-02  0.0000000E+00 -0.5050505E-02  0.4118513E-11  0.0000000E+00  0.2379778E-08
 -0.5050495E-02  0.0000000E+00 -0.5050505E-02  0.4619773E-11  0.0000000E+00  0.2388566E-08
 -0.5050482E-02  0.0000000E+00 -0.5050505E-02  0.5102371E-11  0.0000000E+00  0.2398343E-08
 -0.5050449E-02  0.0000000E+00 -0.5050505E-02  0.5564463E-11  0.0000000E+00  0.2409071E-08
 -0.5050376E-02  0.0000000E+00 -0.5050505E-02  0.6004428E-11  0.0000000E+00  0.2420705E-08
 -0.5050299E-02  0.0000000E+00 -0.5050505E-02  0.6420512E-11  0.0000000E+00  0.2433200E-08
 -0.5050178E-02  0.0000000E+00 -0.5050505E-02  0.6810962E-11  0.0000000E+00  0.2446507E-08
 -0.5050018E-02  0.0000000E+00 -0.5050505E-02  0.7174277E-11  0.0000000E+00  0.2460571E-08
 -0.5049710E-02  0.0000000E+00 -0.5050505E-02  0.7508920E-11  0.0000000E+00  0.2475337E-08
 -0.5049253E-02  0.0000000E+00 -0.5050505E-02  0.7813482E-11  0.0000000E+00  0.2490747E-08
 -0.5048636E-02  0.0000000E+00 -0.5050505E-02  0.8086665E-11  0.0000000E+00  0.2506737E-08
 -0.5047442E-02  0.0000000E+00 -0.5050505E-02  0.8327286E-11  0.0000000E+00  0.2523244E-08
 -0.5045727E-02  0.0000000E+00 -0.5050505E-02  0.8534301E-11  0.0000000E+00  0.2540201E-08
 -0.5043261E-02  0.0000000E+00 -0.5050505E-02  0.8706743E-11  0.0000000E+00  0.2557539E-08
 -0.5038714E-02  0.0000000E+00 -0.5050505E-02  0.8843811E-11  0.0000000E+00  0.2575189E-08
 -0.5032318E-02  0.0000000E+00 -0.5050505E-02  0.8944875E-11  0.0000000E+00  0.2593079E-08
 -0.5022454E-02  0.0000000E+00 -0.5050505E-02  0.9009341E-11  0.0000000E+00  0.2611134E-08
 -0.5012589E-02  0.0000000E+00 -0.5050505E-02  0.9036880E-11  0.0000000E+00  0.2629283E-08
 -0.5002725E-02  0.0000000E+00 -0.5050505E-02  0.9027208E-11  0.0000000E+00  0.2647449E-08
 -0.4992860E-02  0.0000000E+00 -0.5050505E-02  0.8980279E-11  0.0000000E+00  0.2665559E-08
 -0.4976523E-02  0.0000000E+00 -0.5050505E-02  0.8896131E-11  0.0000000E+00  0.2683536E-08
 -0.4956794E-02  0.0000000E+00 -0.5050505E-02  0.8774996E-11  0.0000000E+00  0.2701307E-08
 -0.4937066E-02  0.0000000E+00 -0.5050505E-02  0.8617219E-11  0.0000000E+00  0.2718798E-08
 -0.4906239E-02  0.0000000E+00 -0.5050505E-02  0.8423370E-11  0.0000000E+00  0.2735935E-08
 -0.4866782E-02  0.0000000E+00 -0.5050505E-02  0.8194117E-11  0.0000000E+00  0.2752647E-08
 -0.4827325E-02  0.0000000E+00 -0.5050505E-02  0.7930276E-11  0.0000000E+00  0.2768862E-08
 -0.4769372E-02  0.0000000E+00 -0.5050505E-02  0.7632859E-11  0.0000000E+00  0.2784514E-08
 -0.4690458E-02  0.0000000E+00 -0.5050505E-02  0.7303000E-11  0.0000000E+00  0.2799534E-08
 -0.4611543E-02  0.0000000E+00 -0.5050505E-02  0.6941949E-11  0.0000000E+00  0.2813860E-08
 -0.4503035E-02  0.0000000E+00 -0.5050505E-02  0.6551132E-11  0.0000000E+00  0.2827429E-08
 -0.4345206E-02  0.0000000E+00 -0.5050505E-02  0.6132071E-11  0.0000000E+00  0.2840184E-08
 -0.4187378E-02  0.0000000E+00 -0.5050505E-02  0.5686407E-11  0.0000000E+00  0.2852069E-08
 -0.3985156E-02  0.0000000E+00 -0.5050505E-02  0.5215828E-11  0.0000000E+00  0.2863033E-08
 -0.3669499E-02  0.0000000E+00 -0.5050505E-02  0.4722081E-11  0.0000000E+00  0.2873028E-08
 -0.3353842E-02  0.0000000E+00 -0.5050505E-02  0.4206928E-11  0.0000000E+00  0.2882007E-08
 -0.2978990E-02  0.0000000E+00 -0.5050505E-02  0.3672025E-11  0.0000000E+00  0.2889931E-08
 -0.2347676E-02  0.0000000E+00 -0.5050505E-02  0.3118888E-11  0.0000000E+00  0.2896760E-08
 -0.1716362E-02  0.0000000E+00 -0.5050505E-02  0.2549120E-11  0.0000000E+00  0.2902460E-08
 -0.1025842E-02  0.0000000E+00 -0.5050505E-02  0.1964507E-11  0.0000000E+00  0.2906999E-08
  0.2367855E-03  0.0000000E+00 -0.5050505E-02  0.1367949E-11  0.0000000E+00  0.2910351E-08
  0.1499413E-02  0.0000000E+00 -0.5050505E-02  0.7643588E-12  0.0000000E+00  0.2912495E-08
  0.2762042E-02  0.0000000E+00 -0.5050505E-02  0.1599812E-12  0.0000000E+00  0.2913425E-08
 -0.5050505E-02  0.0000000E+00 -0.5050505E-02 -0.3733245E-12  0.0000000E+00  0.2913210E-08
 -0.5050505E-02  0.0000000E+00 -0.5050505E-02 -0.9198264E-12  0.0000000E+00  0.2911910E-08
 -0.5050505E-02  0.0000000E+00 -0.5050505E-02 -0.1547162E-11  0.0000000E+00  0.2909429E-08
 -0.5050505E-02  0.0000000E+00 -0.5050505E-02 -0.2162734E-11  0.0000000E+00  0.2905698E-08
 -0.5050505E-02  0.0000000E+00 -0.5050505E-02 -0.2757035E-11  0.0000000E+00  0.2900750E-08
 -0.5050505E-02  0.0000000E+00 -0.5050505E-02 -0.3332816E-11  0.0000000E+00  0.2894626E-08
 -0.5050505E-02  0.0000000E+00 -0.5050505E-02 -0.3891831E-11  0.0000000E+00  0.2887360E-08
 -0.5050504E-02  0.0000000E+00 -0.5050505E-02 -0.4433940E-11  0.0000000E+00  0.2878987E-08
 -0.5050501E-02  0.0000000E+00 -0.5050505E-02 -0.4957828E-11  0.0000000E+00  0.2869542E-08
 -0.5050495E-02  0.0000000E+00 -0.5050505E-02 -0.5461772E-11  0.0000000E+00  0.2859064E-08
 -0.5050482E-02  0.0000000E+00 -0.5050505E-02 -0.5943808E-11  0.0000000E+00  0.2847594E-08
 -0.5050449E-02  0.0000000E+00 -0.5050505E-02 -0.6402038E-11  0.0000000E+00  0.2835178E-08
 -0.5050376E-02  0.0000000E+00 -0.5050505E-02 -0.6834588E-11  0.0000000E+00  0.2821866E-08
 -0.5050299E-02  0.0000000E+00 -0.5050505E-02 -0.7239710E-11  0.0000000E+00  0.2807712E-08
 -0.5050178E-02  0.0000000E+00 -0.5050505E-02 -0.7615772E-11  0.0000000E+00  0.2792773E-08
 -0.5050018E-02  0.0000000E+00 -0.5050505E-02 -0.7961249E-11  0.0000000E+00  0.2777108E-08
 -0.5049710E-02  0.0000000E+00 -0.5050505E-02 -0.8274771E-11  0.0000000E+00  0.2760780E-08
 -0.5049253E-02  0.0000000E+00 -0.5050505E-02 -0.8555077E-11  0.0000000E+00  0.2743854E-08
 -0.5048636E-02  0.0000000E+00 -0.5050505E-02 -0.8801126E-11  0.0000000E+00  0.2726400E-08
 -0.5047442E-02  0.0000000E+00 -0.5050505E-02 -0.9011898E-11  0.0000000E+00  0.2708486E-08
 -0.5045727E-02  0.0000000E+00 -0.5050505E-02 -0.9186620E-11  0.0000000E+00  0.2690185E-08
 -0.5043261E-02  0.0000000E+00 -0.5050505E-02 -0.9324625E-11  0.0000000E+00  0.2671569E-08
 -0.5038714E-02  0.0000000E+00 -0.5050505E-02 -0.9425403E-11  0.0000000E+00  0.2652712E-08
 -0.5032318E-02  0.0000000E+00 -0.5050505E-02 -0.9488572E-11  0.0000000E+00  0.2633691E-08
 -0.5022454E-02  0.0000000E+00 -0.5050505E-02 -0.9513892E-11  0.0000000E+00  0.2614581E-08
 -0.5012589E-02  0.0000000E+00 -0.5050505E-02 -0.9501296E-11  0.0000000E+00  0.2595458E-08
 -0.5002725E-02  0.0000000E+00 -0.5050505E-02 -0.9450798E-11  0.0000000E+00  0.2576399E-08
 -0.4992860E-02  0.0000000E+00 -0.5050505E-02 -0.9362534E-11  0.0000000E+00  0.2557479E-08
 -0.4976523E-02  0.0000000E+00 -0.5050505E-02 -0.9236765E-11  0.0000000E+00  0.2538775E-08
 -0.4956794E-02  0.0000000E+00 -0.5050505E-02 -0.9073845E-11  0.0000000E+00  0.2520360E-08
 -0.4937066E-02  0.0000000E+00 -0.5050505E-02 -0.8874185E-11  0.0000000E+00  0.2502311E-08
 -0.4906239E-02  0.0000000E+00 -0.5050505E-02 -0.8638198E-11  0.0000000E+00  0.2484699E-08
 -0.4866782E-02  0.0000000E+00 -0.5050505E-02 -0.8366304E-11  0.0000000E+00  0.2467598E-08
 -0.4827325E-02  0.0000000E+00 -0.5050505E-02 -0.8058826E-11  0.0000000E+00  0.2451080E-08
 -0.4769372E-02  0.0000000E+00 -0.5050505E-02 -0.7715875E-11  0.0000000E+00  0.2435216E-08
 -0.4690458E-02  0.0000000E+00 -0.5050505E-02 -0.7337160E-11  0.0000000E+00  0.2420078E-08
 -0.4611543E-02  0.0000000E+00 -0.5050505E-02 -0.6921765E-11  0.0000000E+00  0.2405738E-08
 -0.4503035E-02  0.0000000E+00 -0.5050505E-02 -0.6467539E-11  0.0000000E+00  0.2392273E-08
 -0.4345206E-02  0.0000000E+00 -0.5050505E-02 -0.5970403E-11  0.0000000E+00  0.2379765E-08
 -0.4187378E-02  0.0000000E+00 -0.5050505E-02 -0.5422656E-11  0.0000000E+00  0.2368307E-08
 -0.3985156E-02  0.0000000E+00 -0.5050505E-02 -0.4810301E-11  0.0000000E+00  0.2358017E-08
 -0.3669499E-02  0.0000000E+00 -0.5050505E-02 -0.4107222E-11  0.0000000E+00  0.2349049E-08
 -0.3353842E-02  0.0000000E+00 -0.5050505E-02 -0.3263498E-11  0.0000000E+00  0.2341636E-08
 -0.2978990E-02  0.0000000E+00 -0.5050505E-02 -0.2177423E-11  0.0000000E+00  0.2336164E-08
 -0.2347676E-02  0.0000000E+00 -0.5050505E-02 -0.6233472E-12  0.0000000E+00  0.2333348E-08
 -0.1716362E-02  0.0000000E+00 -0.5050505E-02  0.1890953E-11  0.0000000E+00  0.2334623E-08
 -0.1025842E-02  0.0000000E+00 -0.5050505E-02  0.6890694E-11  0.0000000E+00  0.2343454E-08
  0.2367855E-03  0.0000000E+00 -0.5050505E-02  0.1873286E-10  0.0000000E+00  0.2369223E-08
  0.1499413E-02  0.0000000E+00 -0.5050505E-02  0.5186088E-10  0.0000000E+00  0.2440216E-08
  0.5287294E-02  0.0000000E+00 -0.5050505E-02  0.8609658E-09  0.0000000E+00  0.1949392E-08
 -0.5050505E-02  0.0000000E+00 -0.5050505E-02  0.5519128E-12  0.0000000E+00  0.2353469E-08
 -0.5050505E-02  0.0000000E+00 -0.5050505E-02  0.2188507E-11  0.0000000E+00  0.2354449E-08
 -0.5050505E-02  0.0000000E+00 -0.5050505E-02  0.4056390E-11  0.0000000E+00  0.2356587E-08
 -0.5050505E-02  0.0000000E+00 -0.5050505E-02  0.5834861E-11  0.0000000E+00  0.2359934E-08
 -0.5050505E-02  0.0000000E+00 -0.5050505E-02  0.7543439E-11  0.0000000E+00  0.2364447E-08
 -0.5050505E-02  0.0000000E+00 -0.5050505E-02  0.9196475E-11  0.0000000E+00  0.2370091E-08
 -0.5050504E-02  0.0000000E+00 -0.5050505E-02  0.1080076E-10  0.0000000E+00  0.2376832E-08
 -0.5050501E-02  0.0000000E+00 -0.5050505E-02  0.1235609E-10  0.0000000E+00  0.2384639E-08
 -0.5050495E-02  0.0000000E+00 -0.5050505E-02  0.1385986E-10  0.0000000E+00  0.2393477E-08
 -0.5050482E-02  0.0000000E+00 -0.5050505E-02  0.1530770E-10  0.0000000E+00  0.2403311E-08
 -0.5050449E-02  0.0000000E+00 -0.5050505E-02  0.1669405E-10  0.0000000E+00  0.2414099E-08
 -0.5050376E-02  0.0000000E+00 -0.5050505E-02  0.1801400E-10  0.0000000E+00  0.2425800E-08
 -0.5050299E-02  0.0000000E+00 -0.5050505E-02  0.1926229E-10  0.0000000E+00  0.2438367E-08
 -0.5050178E-02  0.0000000E+00 -0.5050505E-02  0.2043377E-10  0.0000000E+00  0.2451750E-08
 -0.5050018E-02  0.0000000E+00 -0.5050505E-02  0.2152380E-10  0.0000000E+00  0.2465895E-08
 -0.5049710E-02  0.0000000E+00 -0.5050505E-02  0.2252785E-10  0.0000000E+00  0.2480746E-08
 -0.5049253E-02  0.0000000E+00 -0.5050505E-02  0.2344164E-10  0.0000000E+00  0.2496244E-08
 -0.5048636E-02  0.0000000E+00 -0.5050505E-02  0.2426132E-10  0.0000000E+00  0.2512326E-08
 -0.5047442E-02  0.0000000E+00 -0.5050505E-02  0.2498332E-10  0.0000000E+00  0.2528929E-08
 -0.5045727E-02  0.0000000E+00 -0.5050505E-02  0.2560450E-10  0.0000000E+00  0.2545984E-08
 -0.5043261E-02  0.0000000E+00 -0.5050505E-02  0.2612197E-10  0.0000000E+00  0.2563423E-08
 -0.5038714E-02  0.0000000E+00 -0.5050505E-02  0.2653333E-10  0.0000000E+00  0.2581176E-08
 -0.5032318E-02  0.0000000E+00 -0.5050505E-02  0.2683664E-10  0.0000000E+00  0.2599169E-08
 -0.5022454E-02  0.0000000E+00 -0.5050505E-02  0.2703021E-10  0.0000000E+00  0.2617331E-08
 -0.5012589E-02  0.0000000E+00 -0.5050505E-02  0.2711293E-10  0.0000000E+00  0.2635585E-08
 -0.5002725E-02  0.0000000E+00 -0.5050505E-02  0.2708408E-10  0.0000000E+00  0.2653858E-08
 -0.4992860E-02  0.0000000E+00 -0.5050505E-02  0.2694338E-10  0.0000000E+00  0.2672074E-08
 -0.4976523E-02  0.0000000E+00 -0.5050505E-02  0.2669106E-10  0.0000000E+00  0.2690158E-08
 -0.4956794E-02  0.0000000E+00 -0.5050505E-02  0.2632773E-10  0.0000000E+00  0.2708034E-08
 -0.4937066E-02  0.0000000E+00 -0.5050505E-02  0.2585451E-10  0.0000000E+00  0.2725629E-08
 -0.4906239E-02  0.0000000E+00 -0.5050505E-02  0.2527303E-10  0.0000000E+00  0.2742867E-08
 -0.4866782E-02  0.0000000E+00 -0.5050505E-02  0.2458530E-10  0.0000000E+00  0.2759679E-08
 -0.4827325E-02  0.0000000E+00 -0.5050505E-02  0.2379385E-10  0.0000000E+00  0.2775991E-08
 -0.4769372E-02  0.0000000E+00 -0.5050505E-02  0.2290160E-10  0.0000000E+00  0.2791736E-08
 -0.4690458E-02  0.0000000E+00 -0.5050505E-02  0.2191202E-10  0.0000000E+00  0.2806847E-08
 -0.4611543E-02  0.0000000E+00 -0.5050505E-02  0.2082886E-10  0.0000000E+00  0.2821259E-08
 -0.4503035E-02  0.0000000E+00 -0.5050505E-02  0.1965638E-10  0.0000000E+00  0.2834911E-08
 -0.4345206E-02  0.0000000E+00 -0.5050505E-02  0.1839918E-10  0.0000000E+00  0.2847743E-08
 -0.4187378E-02  0.0000000E+00 -0.5050505E-02  0.1706215E-10  0.0000000E+00  0.2859701E-08
 -0.3985156E-02  0.0000000E+00 -0.5050505E-02  0.1565040E-10  0.0000000E+00  0.2870733E-08
 -0.3669499E-02  0.0000000E+00 -0.5050505E-02  0.1416922E-10  0.0000000E+00  0.2880789E-08
 -0.3353842E-02  0.0000000E+00 -0.5050505E-02  0.1262381E-10  0.0000000E+00  0.2889825E-08
 -0.2978990E-02  0.0000000E+00 -0.5050505E-02  0.1101908E-10  0.0000000E+00  0.2897799E-08
 -0.2347676E-02  0.0000000E+00 -0.5050505E-02  0.9359556E-11  0.0000000E+00  0.2904672E-08
 -0.1716362E-02  0.0000000E+00 -0.5050505E-02  0.7649461E-11  0.0000000E+00  0.2910409E-08
 -0.1025842E-02  0.0000000E+00 -0.5050505E-02  0.5893803E-11  0.0000000E+00  0.2914976E-08
  0.2367855E-03  0.0000000E+00 -0.5050505E-02  0.4101441E-11  0.0000000E+00  0.2918344E-08
  0.1499413E-02  0.0000000E+00 -0.5050505E-02  0.2291041E-11  0.0000000E+00  0.2920496E-08
  0.2762042E-02  0.0000000E+00 -0.5050505E-02  0.4978363E-12  0.0000000E+00  0.2921447E-08
 -0.5050505E-02  0.0000000E+00 -0.5050505E-02 -0.1115756E-11  0.0000000E+00  0.2921254E-08
 -0.5050505E-02  0.0000000E+00 -0.5050505E-02 -0.2773485E-11  0.0000000E+00  0.2919936E-08
 -0.5050505E-02  0.0000000E+00 -0.5050505E-02 -0.4644664E-11  0.0000000E+00  0.2917424E-08
 -0.5050505E-02  0.0000000E+00 -0.5050505E-02 -0.6486773E-11  0.0000000E+00  0.2913670E-08
 -0.5050505E-02  0.0000000E+00 -0.5050505E-02 -0.8269244E-11  0.0000000E+00  0.2908698E-08
 -0.5050505E-02  0.0000000E+00 -0.5050505E-02 -0.9997289E-11  0.0000000E+00  0.2902542E-08
 -0.5050505E-02  0.0000000E+00 -0.5050505E-02 -0.1167501E-10  0.0000000E+00  0.2895238E-08
 -0.5050504E-02  0.0000000E+00 -0.5050505E-02 -0.1330179E-10  0.0000000E+00  0.2886818E-08
 -0.5050501E-02  0.0000000E+00 -0.5050505E-02 -0.1487380E-10  0.0000000E+00  0.2877320E-08
 -0.5050495E-02  0.0000000E+00 -0.5050505E-02 -0.1638583E-10  0.0000000E+00  0.2866782E-08
 -0.5050482E-02  0.0000000E+00 -0.5050505E-02 -0.1783211E-10  0.0000000E+00  0.2855246E-08
 -0.5050449E-02  0.0000000E+00 -0.5050505E-02 -0.1920693E-10  0.0000000E+00  0.2842760E-08
 -0.5050376E-02  0.0000000E+00 -0.5050505E-02 -0.2050468E-10  0.0000000E+00  0.2829372E-08
 -0.5050299E-02  0.0000000E+00 -0.5050505E-02 -0.2172012E-10  0.0000000E+00  0.2815136E-08
 -0.5050178E-02  0.0000000E+00 -0.5050505E-02 -0.2284837E-10  0.0000000E+00  0.2800111E-08
 -0.5050018E-02  0.0000000E+00 -0.5050505E-02 -0.2388485E-10  0.0000000E+00  0.2784356E-08
 -0.5049710E-02  0.0000000E+00 -0.5050505E-02 -0.2482545E-10  0.0000000E+00  0.2767934E-08
 -0.5049253E-02  0.0000000E+00 -0.5050505E-02 -0.2566641E-10  0.0000000E+00  0.2750912E-08
 -0.5048636E-02  0.0000000E+00 -0.5050505E-02 -0.2640453E-10  0.0000000E+00  0.2733357E-08
 -0.5047442E-02  0.0000000E+00 -0.5050505E-02 -0.2703685E-10  0.0000000E+00  0.2715340E-08
 -0.5045727E-02  0.0000000E+00 -0.5050505E-02 -0.2756102E-10  0.0000000E+00  0.2696934E-08
 -0.5043261E-02  0.0000000E+00 -0.5050505E-02 -0.2797503E-10  0.0000000E+00  0.2678211E-08
 -0.5038714E-02  0.0000000E+00 -0.5050505E-02 -0.2827734E-10  0.0000000E+00  0.2659247E-08
 -0.5032318E-02  0.0000000E+00 -0.5050505E-02 -0.2846683E-10  0.0000000E+00  0.2640117E-08
 -0.5022454E-02  0.0000000E+00 -0.5050505E-02 -0.2854281E-10  0.0000000E+00  0.2620897E-08
 -0.5012589E-02  0.0000000E+00 -0.5050505E-02 -0.2850505E-10  0.0000000E+00  0.2601665E-08
 -0.5002725E-02  0.0000000E+00 -0.5050505E-02 -0.2835358E-10  0.0000000E+00  0.2582496E-08
 -0.4992860E-02  0.0000000E+00 -0.5050505E-02 -0.2808886E-10  0.0000000E+00  0.2563468E-08
 -0.4976523E-02  0.0000000E+00 -0.5050505E-02 -0.2771173E-10  0.0000000E+00  0.2544656E-08
 -0.4956794E-02  0.0000000E+00 -0.5050505E-02 -0.2722320E-10  0.0000000E+00  0.2526135E-08
 -0.4937066E-02  0.0000000E+00 -0.5050505E-02 -0.2662453E-10  0.0000000E+00  0.2507981E-08
 -0.4906239E-02  0.0000000E+00 -0.5050505E-02 -0.2591707E-10  0.0000000E+00  0.2490266E-08
 -0.4866782E-02  0.0000000E+00 -0.5050505E-02 -0.2510211E-10  0.0000000E+00  0.2473063E-08
 -0.4827325E-02  0.0000000E+00 -0.5050505E-02 -0.2418074E-10  0.0000000E+00  0.2456445E-08
 -0.4769372E-02  0.0000000E+00 -0.5050505E-02 -0.2315345E-10  0.0000000E+00  0.2440482E-08
 -0.4690458E-02  0.0000000E+00 -0.5050505E-02 -0.2201970E-10  0.0000000E+00  0.2425245E-08
 -0.4611543E-02  0.0000000E+00 -0.5050505E-02 -0.2077714E-10  0.0000000E+00  0.2410804E-08
 -0.4503035E-02  0.0000000E+00 -0.5050505E-02 -0.1942023E-10  0.0000000E+00  0.2397234E-08
 -0.4345206E-02  0.0000000E+00 -0.5050505E-02 -0.1793818E-10  0.0000000E+00  0.2384611E-08
 -0.4187378E-02  0.0000000E+00 -0.5050505E-02 -0.1631075E-10  0.0000000E+00  0.2373019E-08
 -0.3985156E-02  0.0000000E+00 -0.5050505E-02 -0.1450139E-10  0.0000000E+00  0.2362556E-08
 -0.3669499E-02  0.0000000E+00 -0.5050505E-02 -0.1244374E-10  0.0000000E+00  0.2353344E-08
 -0.3353842E-02  0.0000000E+00 -0.5050505E-02 -0.1001614E-10  0.0000000E+00  0.2345541E-08
 -0.2978990E-02  0.0000000E+00 -0.5050505E-02 -0.6987730E-11  0.0000000E+00  0.2339353E-08
 -0.2347676E-02  0.0000000E+00 -0.5050505E-02 -0.2892930E-11  0.0000000E+00  0.2335034E-08
 -0.1716362E-02  0.0000000E+00 -0.5050505E-02  0.3203514E-11  0.0000000E+00  0.2332804E-08
 -0.1025842E-02  0.0000000E+00 -0.5050505E-02  0.1388121E-10  0.0000000E+00  0.2332373E-08
  0.2367855E-03  0.0000000E+00 -0.5050505E-02  0.3501078E-10  0.0000000E+00  0.2330149E-08
  0.1499413E-02  0.0000000E+00 -0.5050505E-02  0.8228523E-10  0.0000000E+00  0.2306521E-08
  0.5287294E-02  0.0000000E+00 -0.5050505E-02  0.1984613E-09  0.0000000E+00  0.2166853E-08
 -0.5050505E-02  0.0000000E+00 -0.5050505E-02  0.1007447E-11  0.0000000E+00  0.2362864E-08
 -0.5050505E-02  0.0000000E+00 -0.5050505E-02  0.3725544E-11  0.0000000E+00  0.2363903E-08
 -0.5050505E-02  0.0000000E+00 -0.5050505E-02  0.6799456E-11  0.0000000E+00  0.2366104E-08
 -0.5050505E-02  0.0000000E+00 -0.5050505E-02  0.9746621E-11  0.0000000E+00  0.2369506E-08
 -0.5050505E-02  0.0000000E+00 -0.5050505E-02  0.1259079E-10  0.0000000E+00  0.2374078E-08
 -0.5050505E-02  0.0000000E+00 -0.5050505E-02  0.1534716E-10  0.0000000E+00  0.2379790E-08
 -0.5050504E-02  0.0000000E+00 -0.5050505E-02  0.1802354E-10  0.0000000E+00  0.2386610E-08
 -0.5050501E-02  0.0000000E+00 -0.5050505E-02  0.2061878E-10  0.0000000E+00  0.2394506E-08
 -0.5050495E-02  0.0000000E+00 -0.5050505E-02  0.2312796E-10  0.0000000E+00  0.2403446E-08
 -0.5050482E-02  0.0000000E+00 -0.5050505E-02  0.2554378E-10  0.0000000E+00  0.2413392E-08
 -0.5050449E-02  0.0000000E+00 -0.5050505E-02  0.2785720E-10  0.0000000E+00  0.2424304E-08
 -0.5050376E-02  0.0000000E+00 -0.5050505E-02  0.3005978E-10  0.0000000E+00  0.2436139E-08
 -0.5050299E-02  0.0000000E+00 -0.5050505E-02  0.3214284E-10  0.0000000E+00  0.2448849E-08
 -0.5050178E-02  0.0000000E+00 -0.5050505E-02  0.3409788E-10  0.0000000E+00  0.2462385E-08
 -0.5050018E-02  0.0000000E+00 -0.5050505E-02  0.3591697E-10  0.0000000E+00  0.2476692E-08
 -0.5049710E-02  0.0000000E+00 -0.5050505E-02  0.3759264E-10  0.0000000E+00  0.2491714E-08
 -0.5049253E-02  0.0000000E+00 -0.5050505E-02  0.3911776E-10  0.0000000E+00  0.2507390E-08
 -0.5048636E-02  0.0000000E+00 -0.5050505E-02  0.4048585E-10  0.0000000E+00  0.2523658E-08
 -0.5047442E-02  0.0000000E+00 -0.5050505E-02  0.4169103E-10  0.0000000E+00  0.2540451E-08
 -0.5045727E-02  0.0000000E+00 -0.5050505E-02  0.4272794E-10  0.0000000E+00  0.2557704E-08
 -0.5043261E-02  0.0000000E+00 -0.5050505E-02  0.4359185E-10  0.0000000E+00  0.2575345E-08
 -0.5038714E-02  0.0000000E+00 -0.5050505E-02  0.4427873E-10  0.0000000E+00  0.2593304E-08
 -0.5032318E-02  0.0000000E+00 -0.5050505E-02  0.4478524E-10  0.0000000E+00  0.2611507E-08
 -0.5022454E-02  0.0000000E+00 -0.5050505E-02  0.4510871E-10  0.0000000E+00  0.2629880E-08
 -0.5012589E-02  0.0000000E+00 -0.5050505E-02  0.4524717E-10  0.0000000E+00  0.2648348E-08
 -0.5002725E-02  0.0000000E+00 -0.5050505E-02  0.4519947E-10  0.0000000E+00  0.2666835E-08
 -0.4992860E-02  0.0000000E+00 -0.5050505E-02  0.4496511E-10  0.0000000E+00  0.2685265E-08
 -0.4976523E-02  0.0000000E+00 -0.5050505E-02  0.4454444E-10  0.0000000E+00  0.2703562E-08
 -0.4956794E-02  0.0000000E+00 -0.5050505E-02  0.4393852E-10  0.0000000E+00  0.2721649E-08
 -0.4937066E-02  0.0000000E+00 -0.5050505E-02  0.4314922E-10  0.0000000E+00  0.2739452E-08
 -0.4906239E-02  0.0000000E+00 -0.5050505E-02  0.4217920E-10  0.0000000E+00  0.2756895E-08
 -0.4866782E-02  0.0000000E+00 -0.5050505E-02  0.4103187E-10  0.0000000E+00  0.2773906E-08
 -0.4827325E-02  0.0000000E+00 -0.5050505E-02  0.3971140E-10  0.0000000E+00  0.2790414E-08
 -0.4769372E-02  0.0000000E+00 -0.5050505E-02  0.3822271E-10  0.0000000E+00  0.2806347E-08
 -0.4690458E-02  0.0000000E+00 -0.5050505E-02  0.3657150E-10  0.0000000E+00  0.2821639E-08
 -0.4611543E-02  0.0000000E+00 -0.5050505E-02  0.3476416E-10  0.0000000E+00  0.2836224E-08
 -0.4503035E-02  0.0000000E+00 -0.5050505E-02  0.3280771E-10  0.0000000E+00  0.2850041E-08
 -0.4345206E-02  0.0000000E+00 -0.5050505E-02  0.3070985E-10  0.0000000E+00  0.2863029E-08
 -0.4187378E-02  0.0000000E+00 -0.5050505E-02  0.2847876E-10  0.0000000E+00  0.2875132E-08
 -0.3985156E-02  0.0000000E+00 -0.5050505E-02  0.2612309E-10  0.0000000E+00  0.2886298E-08
 -0.3669499E-02  0.0000000E+00 -0.5050505E-02  0.2365160E-10  0.0000000E+00  0.2896478E-08
 -0.3353842E-02  0.0000000E+00 -0.5050505E-02  0.2107300E-10  0.0000000E+00  0.2905626E-08
 -0.2978990E-02  0.0000000E+00 -0.5050505E-02  0.1839543E-10  0.0000000E+00  0.2913700E-08
 -0.2347676E-02  0.0000000E+00 -0.5050505E-02  0.1562615E-10  0.0000000E+00  0.2920662E-08
 -0.1716362E-02  0.0000000E+00 -0.5050505E-02  0.1277145E-10  0.0000000E+00  0.2926474E-08
 -0.1025842E-02  0.0000000E+00 -0.5050505E-02  0.9838425E-11  0.0000000E+00  0.2931101E-08
  0.2367855E-03  0.0000000E+00 -0.5050505E-02  0.6841430E-11  0.0000000E+00  0.2934512E-08
  0.1499413E-02  0.0000000E+00 -0.5050505E-02  0.3818011E-11  0.0000000E+00  0.2936687E-08
  0.2762042E-02  0.0000000E+00 -0.5050505E-02  0.8616611E-12  0.0000000E+00  0.2937653E-08
 -0.5050505E-02  0.0000000E+00 -0.5050505E-02 -0.1850963E-11  0.0000000E+00  0.2937470E-08
 -0.5050505E-02  0.0000000E+00 -0.5050505E-02 -0.4650622E-11  0.0000000E+00  0.2936138E-08
 -0.5050505E-02  0.0000000E+00 -0.5050505E-02 -0.7755477E-11  0.0000000E+00  0.2933593E-08
 -0.5050505E-02  0.0000000E+00 -0.5050505E-02 -0.1082075E-10  0.0000000E+00  0.2929796E-08
 -0.5050505E-02  0.0000000E+00 -0.5050505E-02 -0.1379397E-10  0.0000000E+00  0.2924771E-08
 -0.5050505E-02  0.0000000E+00 -0.5050505E-02 -0.1667865E-10  0.0000000E+00  0.2918548E-08
 -0.5050505E-02  0.0000000E+00 -0.5050505E-02 -0.1947956E-10  0.0000000E+00  0.2911163E-08
 -0.5050504E-02  0.0000000E+00 -0.5050505E-02 -0.2219511E-10  0.0000000E+00  0.2902649E-08
 -0.5050501E-02  0.0000000E+00 -0.5050505E-02 -0.2481901E-10  0.0000000E+00  0.2893044E-08
 -0.5050495E-02  0.0000000E+00 -0.5050505E-02 -0.2734254E-10  0.0000000E+00  0.2882386E-08
 -0.5050482E-02  0.0000000E+00 -0.5050505E-02 -0.2975628E-10  0.0000000E+00  0.2870718E-08
 -0.5050449E-02  0.0000000E+00 -0.5050505E-02 -0.3205063E-10  0.0000000E+00  0.2858088E-08
 -0.5050376E-02  0.0000000E+00 -0.5050505E-02 -0.3421634E-10  0.0000000E+00  0.2844547E-08
 -0.5050299E-02  0.0000000E+00 -0.5050505E-02 -0.3624464E-10  0.0000000E+00  0.2830148E-08
 -0.5050178E-02  0.0000000E+00 -0.5050505E-02 -0.3812740E-10  0.0000000E+00  0.2814950E-08
 -0.5050018E-02  0.0000000E+00 -0.5050505E-02 -0.3985697E-10  0.0000000E+00  0.2799014E-08
 -0.5049710E-02  0.0000000E+00 -0.5050505E-02 -0.4142652E-10  0.0000000E+00  0.2782404E-08
 -0.5049253E-02  0.0000000E+00 -0.5050505E-02 -0.4282981E-10  0.0000000E+00  0.2765186E-08
 -0.5048636E-02  0.0000000E+00 -0.5050505E-02 -0.4406138E-10  0.0000000E+00  0.2747430E-08
 -0.5047442E-02  0.0000000E+00 -0.5050505E-02 -0.4511645E-10  0.0000000E+00  0.2729207E-08
 -0.5045727E-02  0.0000000E+00 -0.5050505E-02 -0.4599103E-10  0.0000000E+00  0.2710590E-08
 -0.5043261E-02  0.0000000E+00 -0.5050505E-02 -0.4668178E-10  0.0000000E+00  0.2691653E-08
 -0.5038714E-02  0.0000000E+00 -0.5050505E-02 -0.4718614E-10  0.0000000E+00  0.2672472E-08
 -0.5032318E-02  0.0000000E+00 -0.5050505E-02 -0.4750229E-10  0.0000000E+00  0.2653123E-08
 -0.5022454E-02  0.0000000E+00 -0.5050505E-02 -0.4762910E-10  0.0000000E+00  0.2633684E-08
 -0.5012589E-02  0.0000000E+00 -0.5050505E-02 -0.4756611E-10  0.0000000E+00  0.2614232E-08
 -0.5002725E-02  0.0000000E+00 -0.5050505E-02 -0.4731349E-10  0.0000000E+00  0.2594844E-08
 -0.4992860E-02  0.0000000E+00 -0.5050505E-02 -0.4687210E-10  0.0000000E+00  0.2575597E-08
 -0.4976523E-02  0.0000000E+00 -0.5050505E-02 -0.4624329E-10  0.0000000E+00  0.2556569E-08
 -0.4956794E-02  0.0000000E+00 -0.5050505E-02 -0.4542885E-10  0.0000000E+00  0.2537835E-08
 -0.4937066E-02  0.0000000E+00 -0.5050505E-02 -0.4443098E-10  0.0000000E+00  0.2519470E-08
 -0.4906239E-02  0.0000000E+00 -0.5050505E-02 -0.4325212E-10  0.0000000E+00  0.2501549E-08
 -0.4866782E-02  0.0000000E+00 -0.5050505E-02 -0.4189460E-10  0.0000000E+00  0.2484143E-08
 -0.4827325E-02  0.0000000E+00 -0.5050505E-02 -0.4036059E-10  0.0000000E+00  0.2467325E-08
 -0.4769372E-02  0.0000000E+00 -0.5050505E-02 -0.3865143E-10  0.0000000E+00  0.2451164E-08
 -0.4690458E-02  0.0000000E+00 -0.5050505E-02 -0.3676710E-10  0.0000000E+00  0.2435730E-08
 -0.4611543E-02  0.0000000E+00 -0.5050505E-02 -0.3470506E-10  0.0000000E+00  0.2421092E-08
 -0.4503035E-02  0.0000000E+00 -0.5050505E-02 -0.3245865E-10  0.0000000E+00  0.2407317E-08
 -0.4345206E-02  0.0000000E+00 -0.5050505E-02 -0.3001405E-10  0.0000000E+00  0.2394473E-08
 -0.4187378E-02  0.0000000E+00 -0.5050505E-02 -0.2734568E-10  0.0000000E+00  0.2382630E-08
 -0.3985156E-02  0.0000000E+00 -0.5050505E-02 -0.2440768E-10  0.0000000E+00  0.2371860E-08
 -0.3669499E-02  0.0000000E+00 -0.5050505E-02 -0.2112012E-10  0.0000000E+00  0.2362232E-08
 -0.3353842E-02  0.0000000E+00 -0.5050505E-02 -0.1734631E-10  0.0000000E+00  0.2353812E-08
 -0.2978990E-02  0.0000000E+00 -0.5050505E-02 -0.1285894E-10  0.0000000E+00  0.2346628E-08
 -0.2347676E-02  0.0000000E+00 -0.5050505E-02 -0.7297237E-11  0.0000000E+00  0.2340557E-08
 -0.1716362E-02  0.0000000E+00 -0.5050505E-02  0.7143205E-13  0.0000000E+00  0.2335210E-08
 -0.1025842E-02  0.0000000E+00 -0.5050505E-02  0.1044715E-10  0.0000000E+00  0.2329135E-08
  0.2367855E-03  0.0000000E+00 -0.5050505E-02  0.2539718E-10  0.0000000E+00  0.2318514E-08
  0.1499413E-02  0.0000000E+00 -0.5050505E-02  0.4434726E-10  0.0000000E+00  0.2294983E-08
  0.5287294E-02  0.0000000E+00 -0.5050505E-02  0.5125217E-10  0.0000000E+00  0.2250044E-08
 -0.5050505E-02  0.0000000E+00 -0.5050505E-02  0.1496635E-11  0.0000000E+00  0.2377187E-08
 -0.5050505E-02  0.0000000E+00 -0.5050505E-02  0.5313344E-11  0.0000000E+00  0.2378263E-08
 -0.5050505E-02  0.0000000E+00 -0.5050505E-02  0.9586343E-11  0.0000000E+00  0.2380521E-08
 -0.5050505E-02  0.0000000E+00 -0.5050505E-02  0.1370233E-10  0.0000000E+00  0.2383993E-08
 -0.5050505E-02  0.0000000E+00 -0.5050505E-02  0.1768707E-10  0.0000000E+00  0.2388649E-08
 -0.5050505E-02  0.0000000E+00 -0.5050505E-02  0.2155425E-10  0.0000000E+00  0.2394462E-08
 -0.5050504E-02  0.0000000E+00 -0.5050505E-02  0.2531097E-10  0.0000000E+00  0.2401401E-08
 -0.5050501E-02  0.0000000E+00 -0.5050505E-02  0.2895470E-10  0.0000000E+00  0.2409433E-08
 -0.5050495E-02  0.0000000E+00 -0.5050505E-02  0.3247780E-10  0.0000000E+00  0.2418525E-08
 -0.5050482E-02  0.0000000E+00 -0.5050505E-02  0.3586989E-10  0.0000000E+00  0.2428640E-08
 -0.5050449E-02  0.0000000E+00 -0.5050505E-02  0.3911847E-10  0.0000000E+00  0.2439738E-08
 -0.5050376E-02  0.0000000E+00 -0.5050505E-02  0.4221147E-10  0.0000000E+00  0.2451775E-08
 -0.5050299E-02  0.0000000E+00 -0.5050505E-02  0.4513680E-10  0.0000000E+00  0.2464702E-08
 -0.5050178E-02  0.0000000E+00 -0.5050505E-02  0.4788244E-10  0.0000000E+00  0.2478468E-08
 -0.5050018E-02  0.0000000E+00 -0.5050505E-02  0.5043732E-10  0.0000000E+00  0.2493020E-08
 -0.5049710E-02  0.0000000E+00 -0.5050505E-02  0.5279084E-10  0.0000000E+00  0.2508298E-08
 -0.5049253E-02  0.0000000E+00 -0.5050505E-02  0.5493311E-10  0.0000000E+00  0.2524243E-08
 -0.5048636E-02  0.0000000E+00 -0.5050505E-02  0.5685490E-10  0.0000000E+00  0.2540790E-08
 -0.5047442E-02  0.0000000E+00 -0.5050505E-02  0.5854802E-10  0.0000000E+00  0.2557872E-08
 -0.5045727E-02  0.0000000E+00 -0.5050505E-02  0.6000489E-10  0.0000000E+00  0.2575421E-08
 -0.5043261E-02  0.0000000E+00 -0.5050505E-02  0.6121888E-10  0.0000000E+00  0.2593367E-08
 -0.5038714E-02  0.0000000E+00 -0.5050505E-02  0.6218433E-10  0.0000000E+00  0.2611636E-08
 -0.5032318E-02  0.0000000E+00 -0.5050505E-02  0.6289648E-10  0.0000000E+00  0.2630155E-08
 -0.5022454E-02  0.0000000E+00 -0.5050505E-02  0.6335164E-10  0.0000000E+00  0.2648847E-08
 -0.5012589E-02  0.0000000E+00 -0.5050505E-02  0.6354699E-10  0.0000000E+00  0.2667637E-08
 -0.5002725E-02  0.0000000E+00 -0.5050505E-02  0.6348088E-10  0.0000000E+00  0.2686446E-08
 -0.4992860E-02  0.0000000E+00 -0.5050505E-02  0.6315268E-10  0.0000000E+00  0.2705199E-08
 -0.4976523E-02  0.0000000E+00 -0.5050505E-02  0.6256273E-10  0.0000000E+00  0.2723816E-08
 -0.4956794E-02  0.0000000E+00 -0.5050505E-02  0.6171267E-10  0.0000000E+00  0.2742222E-08
 -0.4937066E-02  0.0000000E+00 -0.5050505E-02  0.6060501E-10  0.0000000E+00  0.2760338E-08