title = "dataset feddes"
variables = "x", "y", "z", "vx", "vy", "vz"
zone t = "velocities, solution time =  5.100E+01 days        " i =   99, j =   99, k =    1,  f=point
 -0.5050505E-02  0.0000000E+00 -0.5050505E-02  0.3699165E-09  0.0000000E+00  0.2849644E-05
 -0.5050505E-02  0.0000000E+00 -0.5050505E-02  0.1108368E-08  0.0000000E+00  0.2851131E-05
 -0.5050505E-02  0.0000000E+00 -0.5050505E-02  0.1842578E-08  0.0000000E+00  0.2854099E-05
 -0.5050505E-02  0.0000000E+00 -0.5050505E-02  0.2569726E-08  0.0000000E+00  0.2858537E-05
 -0.5050505E-02  0.0000000E+00 -0.5050505E-02  0.3287019E-08  0.0000000E+00  0.2864427E-05
 -0.5050505E-02  0.0000000E+00 -0.5050505E-02  0.3991688E-08  0.0000000E+00  0.2871748E-05
 -0.5050504E-02  0.0000000E+00 -0.5050505E-02  0.4681003E-08  0.0000000E+00  0.2880470E-05
 -0.5050501E-02  0.0000000E+00 -0.5050505E-02  0.5352272E-08  0.0000000E+00  0.2890561E-05
 -0.5050495E-02  0.0000000E+00 -0.5050505E-02  0.6002859E-08  0.0000000E+00  0.2901982E-05
 -0.5050482E-02  0.0000000E+00 -0.5050505E-02  0.6630188E-08  0.0000000E+00  0.2914688E-05
 -0.5050449E-02  0.0000000E+00 -0.5050505E-02  0.7231748E-08  0.0000000E+00  0.2928629E-05
 -0.5050376E-02  0.0000000E+00 -0.5050505E-02  0.7805110E-08  0.0000000E+00  0.2943753E-05
 -0.5050299E-02  0.0000000E+00 -0.5050505E-02  0.8347928E-08  0.0000000E+00  0.2959999E-05
 -0.5050178E-02  0.0000000E+00 -0.5050505E-02  0.8857951E-08  0.0000000E+00  0.2977304E-05
 -0.5050018E-02  0.0000000E+00 -0.5050505E-02  0.9333033E-08  0.0000000E+00  0.2995600E-05
 -0.5049710E-02  0.0000000E+00 -0.5050505E-02  0.9771138E-08  0.0000000E+00  0.3014814E-05
 -0.5049253E-02  0.0000000E+00 -0.5050505E-02  0.1017035E-07  0.0000000E+00  0.3034870E-05
 -0.5048636E-02  0.0000000E+00 -0.5050505E-02  0.1052890E-07  0.0000000E+00  0.3055689E-05
 -0.5047442E-02  0.0000000E+00 -0.5050505E-02  0.1084513E-07  0.0000000E+00  0.3077186E-05
 -0.5045727E-02  0.0000000E+00 -0.5050505E-02  0.1111755E-07  0.0000000E+00  0.3099275E-05
 -0.5043261E-02  0.0000000E+00 -0.5050505E-02  0.1134483E-07  0.0000000E+00  0.3121867E-05
 -0.5038714E-02  0.0000000E+00 -0.5050505E-02  0.1152578E-07  0.0000000E+00  0.3144869E-05
 -0.5032318E-02  0.0000000E+00 -0.5050505E-02  0.1165942E-07  0.0000000E+00  0.3168188E-05
 -0.5022454E-02  0.0000000E+00 -0.5050505E-02  0.1174492E-07  0.0000000E+00  0.3191728E-05
 -0.5012589E-02  0.0000000E+00 -0.5050505E-02  0.1178164E-07  0.0000000E+00  0.3215390E-05
 -0.5002725E-02  0.0000000E+00 -0.5050505E-02  0.1176917E-07  0.0000000E+00  0.3239077E-05
 -0.4992860E-02  0.0000000E+00 -0.5050505E-02  0.1170724E-07  0.0000000E+00  0.3262688E-05
 -0.4976523E-02  0.0000000E+00 -0.5050505E-02  0.1159584E-07  0.0000000E+00  0.3286126E-05
 -0.4956794E-02  0.0000000E+00 -0.5050505E-02  0.1143515E-07  0.0000000E+00  0.3309290E-05
 -0.4937066E-02  0.0000000E+00 -0.5050505E-02  0.1122554E-07  0.0000000E+00  0.3332081E-05
 -0.4906239E-02  0.0000000E+00 -0.5050505E-02  0.1096763E-07  0.0000000E+00  0.3354402E-05
 -0.4866782E-02  0.0000000E+00 -0.5050505E-02  0.1066224E-07  0.0000000E+00  0.3376157E-05
 -0.4827325E-02  0.0000000E+00 -0.5050505E-02  0.1031041E-07  0.0000000E+00  0.3397251E-05
 -0.4769372E-02  0.0000000E+00 -0.5050505E-02  0.9913379E-08  0.0000000E+00  0.3417591E-05
 -0.4690458E-02  0.0000000E+00 -0.5050505E-02  0.9472624E-08  0.0000000E+00  0.3437089E-05
 -0.4611543E-02  0.0000000E+00 -0.5050505E-02  0.8989813E-08  0.0000000E+00  0.3455658E-05
 -0.4503035E-02  0.0000000E+00 -0.5050505E-02  0.8466823E-08  0.0000000E+00  0.3473216E-05
 -0.4345206E-02  0.0000000E+00 -0.5050505E-02  0.7905728E-08  0.0000000E+00  0.3489683E-05
 -0.4187378E-02  0.0000000E+00 -0.5050505E-02  0.7308789E-08  0.0000000E+00  0.3504985E-05
 -0.3985156E-02  0.0000000E+00 -0.5050505E-02  0.6678447E-08  0.0000000E+00  0.3519053E-05
 -0.3669499E-02  0.0000000E+00 -0.5050505E-02  0.6017315E-08  0.0000000E+00  0.3531823E-05
 -0.3353842E-02  0.0000000E+00 -0.5050505E-02  0.5328160E-08  0.0000000E+00  0.3543234E-05
 -0.2978990E-02  0.0000000E+00 -0.5050505E-02  0.4613895E-08  0.0000000E+00  0.3553233E-05
 -0.2347676E-02  0.0000000E+00 -0.5050505E-02  0.3877564E-08  0.0000000E+00  0.3561774E-05
 -0.1716362E-02  0.0000000E+00 -0.5050505E-02  0.3122326E-08  0.0000000E+00  0.3568814E-05
 -0.1025842E-02  0.0000000E+00 -0.5050505E-02  0.2351438E-08  0.0000000E+00  0.3574319E-05
  0.2367855E-03  0.0000000E+00 -0.5050505E-02  0.1568242E-08  0.0000000E+00  0.3578262E-05
  0.1499413E-02  0.0000000E+00 -0.5050505E-02  0.7761440E-09  0.0000000E+00  0.3580620E-05
  0.2762042E-02  0.0000000E+00 -0.5050505E-02 -0.2140216E-10  0.0000000E+00  0.3581379E-05
 -0.5050505E-02  0.0000000E+00 -0.5050505E-02 -0.8209149E-09  0.0000000E+00  0.3580531E-05
 -0.5050505E-02  0.0000000E+00 -0.5050505E-02 -0.1618904E-08  0.0000000E+00  0.3578078E-05
 -0.5050505E-02  0.0000000E+00 -0.5050505E-02 -0.2411884E-08  0.0000000E+00  0.3574023E-05
 -0.5050505E-02  0.0000000E+00 -0.5050505E-02 -0.3196395E-08  0.0000000E+00  0.3568383E-05
 -0.5050505E-02  0.0000000E+00 -0.5050505E-02 -0.3969027E-08  0.0000000E+00  0.3561176E-05
 -0.5050505E-02  0.0000000E+00 -0.5050505E-02 -0.4726428E-08  0.0000000E+00  0.3552430E-05
 -0.5050505E-02  0.0000000E+00 -0.5050505E-02 -0.5465330E-08  0.0000000E+00  0.3542180E-05
 -0.5050504E-02  0.0000000E+00 -0.5050505E-02 -0.6182559E-08  0.0000000E+00  0.3530464E-05
 -0.5050501E-02  0.0000000E+00 -0.5050505E-02 -0.6875054E-08  0.0000000E+00  0.3517331E-05
 -0.5050495E-02  0.0000000E+00 -0.5050505E-02 -0.7539883E-08  0.0000000E+00  0.3502833E-05
 -0.5050482E-02  0.0000000E+00 -0.5050505E-02 -0.8174251E-08  0.0000000E+00  0.3487028E-05
 -0.5050449E-02  0.0000000E+00 -0.5050505E-02 -0.8775520E-08  0.0000000E+00  0.3469981E-05
 -0.5050376E-02  0.0000000E+00 -0.5050505E-02 -0.9341217E-08  0.0000000E+00  0.3451759E-05
 -0.5050299E-02  0.0000000E+00 -0.5050505E-02 -0.9869042E-08  0.0000000E+00  0.3432438E-05
 -0.5050178E-02  0.0000000E+00 -0.5050505E-02 -0.1035688E-07  0.0000000E+00  0.3412095E-05
 -0.5050018E-02  0.0000000E+00 -0.5050505E-02 -0.1080281E-07  0.0000000E+00  0.3390813E-05
 -0.5049710E-02  0.0000000E+00 -0.5050505E-02 -0.1120509E-07  0.0000000E+00  0.3368679E-05
 -0.5049253E-02  0.0000000E+00 -0.5050505E-02 -0.1156222E-07  0.0000000E+00  0.3345780E-05
 -0.5048636E-02  0.0000000E+00 -0.5050505E-02 -0.1187286E-07  0.0000000E+00  0.3322210E-05
 -0.5047442E-02  0.0000000E+00 -0.5050505E-02 -0.1213590E-07  0.0000000E+00  0.3298062E-05
 -0.5045727E-02  0.0000000E+00 -0.5050505E-02 -0.1235044E-07  0.0000000E+00  0.3273435E-05
 -0.5043261E-02  0.0000000E+00 -0.5050505E-02 -0.1251576E-07  0.0000000E+00  0.3248425E-05
 -0.5038714E-02  0.0000000E+00 -0.5050505E-02 -0.1263136E-07  0.0000000E+00  0.3223133E-05
 -0.5032318E-02  0.0000000E+00 -0.5050505E-02 -0.1269695E-07  0.0000000E+00  0.3197658E-05
 -0.5022454E-02  0.0000000E+00 -0.5050505E-02 -0.1271239E-07  0.0000000E+00  0.3172103E-05
 -0.5012589E-02  0.0000000E+00 -0.5050505E-02 -0.1267775E-07  0.0000000E+00  0.3146566E-05
 -0.5002725E-02  0.0000000E+00 -0.5050505E-02 -0.1259327E-07  0.0000000E+00  0.3121149E-05
 -0.4992860E-02  0.0000000E+00 -0.5050505E-02 -0.1245933E-07  0.0000000E+00  0.3095952E-05
 -0.4976523E-02  0.0000000E+00 -0.5050505E-02 -0.1227645E-07  0.0000000E+00  0.3071074E-05
 -0.4956794E-02  0.0000000E+00 -0.5050505E-02 -0.1204526E-07  0.0000000E+00  0.3046612E-05
 -0.4937066E-02  0.0000000E+00 -0.5050505E-02 -0.1176649E-07  0.0000000E+00  0.3022663E-05
 -0.4906239E-02  0.0000000E+00 -0.5050505E-02 -0.1144088E-07  0.0000000E+00  0.2999322E-05
 -0.4866782E-02  0.0000000E+00 -0.5050505E-02 -0.1106915E-07  0.0000000E+00  0.2976683E-05
 -0.4827325E-02  0.0000000E+00 -0.5050505E-02 -0.1065191E-07  0.0000000E+00  0.2954836E-05
 -0.4769372E-02  0.0000000E+00 -0.5050505E-02 -0.1018951E-07  0.0000000E+00  0.2933875E-05
 -0.4690458E-02  0.0000000E+00 -0.5050505E-02 -0.9681871E-08  0.0000000E+00  0.2913889E-05
 -0.4611543E-02  0.0000000E+00 -0.5050505E-02 -0.9128086E-08  0.0000000E+00  0.2894971E-05
 -0.4503035E-02  0.0000000E+00 -0.5050505E-02 -0.8525923E-08  0.0000000E+00  0.2877215E-05
 -0.4345206E-02  0.0000000E+00 -0.5050505E-02 -0.7870832E-08  0.0000000E+00  0.2860724E-05
 -0.4187378E-02  0.0000000E+00 -0.5050505E-02 -0.7154190E-08  0.0000000E+00  0.2845613E-05
 -0.3985156E-02  0.0000000E+00 -0.5050505E-02 -0.6359955E-08  0.0000000E+00  0.2832021E-05
 -0.3669499E-02  0.0000000E+00 -0.5050505E-02 -0.5457897E-08  0.0000000E+00  0.2820135E-05
 -0.3353842E-02  0.0000000E+00 -0.5050505E-02 -0.4389000E-08  0.0000000E+00  0.2810231E-05
 -0.2978990E-02  0.0000000E+00 -0.5050505E-02 -0.3031574E-08  0.0000000E+00  0.2802768E-05
 -0.2347676E-02  0.0000000E+00 -0.5050505E-02 -0.1115702E-08  0.0000000E+00  0.2798597E-05
 -0.1716362E-02  0.0000000E+00 -0.5050505E-02  0.2013131E-08  0.0000000E+00  0.2799500E-05
 -0.1025842E-02  0.0000000E+00 -0.5050505E-02  0.8110773E-08  0.0000000E+00  0.2809682E-05
  0.2367855E-03  0.0000000E+00 -0.5050505E-02  0.2241424E-07  0.0000000E+00  0.2840382E-05
  0.1499413E-02  0.0000000E+00 -0.5050505E-02  0.6222967E-07  0.0000000E+00  0.2925513E-05
  0.5287294E-02  0.0000000E+00 -0.5050505E-02  0.1032470E-05  0.0000000E+00  0.2337193E-05
 -0.5050505E-02  0.0000000E+00 -0.5050505E-02  0.1109853E-08  0.0000000E+00  0.2854455E-05
 -0.5050505E-02  0.0000000E+00 -0.5050505E-02  0.3325395E-08  0.0000000E+00  0.2855950E-05
 -0.5050505E-02  0.0000000E+00 -0.5050505E-02  0.5528220E-08  0.0000000E+00  0.2858935E-05
 -0.5050505E-02  0.0000000E+00 -0.5050505E-02  0.7709865E-08  0.0000000E+00  0.2863399E-05
 -0.5050505E-02  0.0000000E+00 -0.5050505E-02  0.9861952E-08  0.0000000E+00  0.2869324E-05
 -0.5050505E-02  0.0000000E+00 -0.5050505E-02  0.1197618E-07  0.0000000E+00  0.2876688E-05
 -0.5050504E-02  0.0000000E+00 -0.5050505E-02  0.1404435E-07  0.0000000E+00  0.2885462E-05
 -0.5050501E-02  0.0000000E+00 -0.5050505E-02  0.1605840E-07  0.0000000E+00  0.2895613E-05
 -0.5050495E-02  0.0000000E+00 -0.5050505E-02  0.1801042E-07  0.0000000E+00  0.2907101E-05
 -0.5050482E-02  0.0000000E+00 -0.5050505E-02  0.1989267E-07  0.0000000E+00  0.2919882E-05
 -0.5050449E-02  0.0000000E+00 -0.5050505E-02  0.2169764E-07  0.0000000E+00  0.2933906E-05
 -0.5050376E-02  0.0000000E+00 -0.5050505E-02  0.2341802E-07  0.0000000E+00  0.2949119E-05
 -0.5050299E-02  0.0000000E+00 -0.5050505E-02  0.2504679E-07  0.0000000E+00  0.2965462E-05
 -0.5050178E-02  0.0000000E+00 -0.5050505E-02  0.2657718E-07  0.0000000E+00  0.2982871E-05
 -0.5050018E-02  0.0000000E+00 -0.5050505E-02  0.2800276E-07  0.0000000E+00  0.3001276E-05
 -0.5049710E-02  0.0000000E+00 -0.5050505E-02  0.2931742E-07  0.0000000E+00  0.3020606E-05
 -0.5049253E-02  0.0000000E+00 -0.5050505E-02  0.3051543E-07  0.0000000E+00  0.3040783E-05
 -0.5048636E-02  0.0000000E+00 -0.5050505E-02  0.3159142E-07  0.0000000E+00  0.3061727E-05
 -0.5047442E-02  0.0000000E+00 -0.5050505E-02  0.3254048E-07  0.0000000E+00  0.3083355E-05
 -0.5045727E-02  0.0000000E+00 -0.5050505E-02  0.3335810E-07  0.0000000E+00  0.3105579E-05
 -0.5043261E-02  0.0000000E+00 -0.5050505E-02  0.3404029E-07  0.0000000E+00  0.3128308E-05
 -0.5038714E-02  0.0000000E+00 -0.5050505E-02  0.3458350E-07  0.0000000E+00  0.3151452E-05
 -0.5032318E-02  0.0000000E+00 -0.5050505E-02  0.3498474E-07  0.0000000E+00  0.3174914E-05
 -0.5022454E-02  0.0000000E+00 -0.5050505E-02  0.3524156E-07  0.0000000E+00  0.3198599E-05
 -0.5012589E-02  0.0000000E+00 -0.5050505E-02  0.3535204E-07  0.0000000E+00  0.3222408E-05
 -0.5002725E-02  0.0000000E+00 -0.5050505E-02  0.3531487E-07  0.0000000E+00  0.3246242E-05
 -0.4992860E-02  0.0000000E+00 -0.5050505E-02  0.3512935E-07  0.0000000E+00  0.3270001E-05
 -0.4976523E-02  0.0000000E+00 -0.5050505E-02  0.3479536E-07  0.0000000E+00  0.3293586E-05
 -0.4956794E-02  0.0000000E+00 -0.5050505E-02  0.3431344E-07  0.0000000E+00  0.3316895E-05
 -0.4937066E-02  0.0000000E+00 -0.5050505E-02  0.3368476E-07  0.0000000E+00  0.3339831E-05
 -0.4906239E-02  0.0000000E+00 -0.5050505E-02  0.3291113E-07  0.0000000E+00  0.3362294E-05
 -0.4866782E-02  0.0000000E+00 -0.5050505E-02  0.3199500E-07  0.0000000E+00  0.3384187E-05
 -0.4827325E-02  0.0000000E+00 -0.5050505E-02  0.3093949E-07  0.0000000E+00  0.3405416E-05
 -0.4769372E-02  0.0000000E+00 -0.5050505E-02  0.2974835E-07  0.0000000E+00  0.3425887E-05
 -0.4690458E-02  0.0000000E+00 -0.5050505E-02  0.2842597E-07  0.0000000E+00  0.3445510E-05
 -0.4611543E-02  0.0000000E+00 -0.5050505E-02  0.2697738E-07  0.0000000E+00  0.3464200E-05
 -0.4503035E-02  0.0000000E+00 -0.5050505E-02  0.2540820E-07  0.0000000E+00  0.3481871E-05
 -0.4345206E-02  0.0000000E+00 -0.5050505E-02  0.2372464E-07  0.0000000E+00  0.3498446E-05
 -0.4187378E-02  0.0000000E+00 -0.5050505E-02  0.2193350E-07  0.0000000E+00  0.3513849E-05
 -0.3985156E-02  0.0000000E+00 -0.5050505E-02  0.2004211E-07  0.0000000E+00  0.3528010E-05
 -0.3669499E-02  0.0000000E+00 -0.5050505E-02  0.1805829E-07  0.0000000E+00  0.3540864E-05
 -0.3353842E-02  0.0000000E+00 -0.5050505E-02  0.1599037E-07  0.0000000E+00  0.3552351E-05
 -0.2978990E-02  0.0000000E+00 -0.5050505E-02  0.1384707E-07  0.0000000E+00  0.3562418E-05
 -0.2347676E-02  0.0000000E+00 -0.5050505E-02  0.1163754E-07  0.0000000E+00  0.3571017E-05
 -0.1716362E-02  0.0000000E+00 -0.5050505E-02  0.9371257E-08  0.0000000E+00  0.3578106E-05
 -0.1025842E-02  0.0000000E+00 -0.5050505E-02  0.7057999E-08  0.0000000E+00  0.3583650E-05
  0.2367855E-03  0.0000000E+00 -0.5050505E-02  0.4707794E-08  0.0000000E+00  0.3587621E-05
  0.1499413E-02  0.0000000E+00 -0.5050505E-02  0.2330869E-08  0.0000000E+00  0.3589998E-05
  0.2762042E-02  0.0000000E+00 -0.5050505E-02 -0.6241079E-10  0.0000000E+00  0.3590766E-05
 -0.5050505E-02  0.0000000E+00 -0.5050505E-02 -0.2461593E-08  0.0000000E+00  0.3589917E-05
 -0.5050505E-02  0.0000000E+00 -0.5050505E-02 -0.4856202E-08  0.0000000E+00  0.3587451E-05
 -0.5050505E-02  0.0000000E+00 -0.5050505E-02 -0.7235772E-08  0.0000000E+00  0.3583374E-05
 -0.5050505E-02  0.0000000E+00 -0.5050505E-02 -0.9589923E-08  0.0000000E+00  0.3577701E-05
 -0.5050505E-02  0.0000000E+00 -0.5050505E-02 -0.1190841E-07  0.0000000E+00  0.3570452E-05
 -0.5050505E-02  0.0000000E+00 -0.5050505E-02 -0.1418119E-07  0.0000000E+00  0.3561654E-05
 -0.5050505E-02  0.0000000E+00 -0.5050505E-02 -0.1639843E-07  0.0000000E+00  0.3551341E-05
 -0.5050504E-02  0.0000000E+00 -0.5050505E-02 -0.1855062E-07  0.0000000E+00  0.3539555E-05
 -0.5050501E-02  0.0000000E+00 -0.5050505E-02 -0.2062857E-07  0.0000000E+00  0.3526342E-05
 -0.5050495E-02  0.0000000E+00 -0.5050505E-02 -0.2262348E-07  0.0000000E+00  0.3511755E-05
 -0.5050482E-02  0.0000000E+00 -0.5050505E-02 -0.2452696E-07  0.0000000E+00  0.3495853E-05
 -0.5050449E-02  0.0000000E+00 -0.5050505E-02 -0.2633110E-07  0.0000000E+00  0.3478701E-05
 -0.5050376E-02  0.0000000E+00 -0.5050505E-02 -0.2802847E-07  0.0000000E+00  0.3460368E-05
 -0.5050299E-02  0.0000000E+00 -0.5050505E-02 -0.2961218E-07  0.0000000E+00  0.3440929E-05
 -0.5050178E-02  0.0000000E+00 -0.5050505E-02 -0.3107587E-07  0.0000000E+00  0.3420462E-05
 -0.5050018E-02  0.0000000E+00 -0.5050505E-02 -0.3241379E-07  0.0000000E+00  0.3399050E-05
 -0.5049710E-02  0.0000000E+00 -0.5050505E-02 -0.3362075E-07  0.0000000E+00  0.3376780E-05
 -0.5049253E-02  0.0000000E+00 -0.5050505E-02 -0.3469217E-07  0.0000000E+00  0.3353742E-05
 -0.5048636E-02  0.0000000E+00 -0.5050505E-02 -0.3562410E-07  0.0000000E+00  0.3330028E-05
 -0.5047442E-02  0.0000000E+00 -0.5050505E-02 -0.3641319E-07  0.0000000E+00  0.3305735E-05
 -0.5045727E-02  0.0000000E+00 -0.5050505E-02 -0.3705673E-07  0.0000000E+00  0.3280958E-05
 -0.5043261E-02  0.0000000E+00 -0.5050505E-02 -0.3755260E-07  0.0000000E+00  0.3255797E-05
 -0.5038714E-02  0.0000000E+00 -0.5050505E-02 -0.3789931E-07  0.0000000E+00  0.3230353E-05
 -0.5032318E-02  0.0000000E+00 -0.5050505E-02 -0.3809594E-07  0.0000000E+00  0.3204725E-05
 -0.5022454E-02  0.0000000E+00 -0.5050505E-02 -0.3814214E-07  0.0000000E+00  0.3179016E-05
 -0.5012589E-02  0.0000000E+00 -0.5050505E-02 -0.3803812E-07  0.0000000E+00  0.3153326E-05
 -0.5002725E-02  0.0000000E+00 -0.5050505E-02 -0.3778458E-07  0.0000000E+00  0.3127757E-05
 -0.4992860E-02  0.0000000E+00 -0.5050505E-02 -0.3738270E-07  0.0000000E+00  0.3102409E-05
 -0.4976523E-02  0.0000000E+00 -0.5050505E-02 -0.3683407E-07  0.0000000E+00  0.3077382E-05
 -0.4956794E-02  0.0000000E+00 -0.5050505E-02 -0.3614062E-07  0.0000000E+00  0.3052773E-05
 -0.4937066E-02  0.0000000E+00 -0.5050505E-02 -0.3530454E-07  0.0000000E+00  0.3028680E-05
 -0.4906239E-02  0.0000000E+00 -0.5050505E-02 -0.3432813E-07  0.0000000E+00  0.3005198E-05
 -0.4866782E-02  0.0000000E+00 -0.5050505E-02 -0.3321364E-07  0.0000000E+00  0.2982419E-05
 -0.4827325E-02  0.0000000E+00 -0.5050505E-02 -0.3196303E-07  0.0000000E+00  0.2960437E-05
 -0.4769372E-02  0.0000000E+00 -0.5050505E-02 -0.3057757E-07  0.0000000E+00  0.2939342E-05
 -0.4690458E-02  0.0000000E+00 -0.5050505E-02 -0.2905731E-07  0.0000000E+00  0.2919223E-05
 -0.4611543E-02  0.0000000E+00 -0.5050505E-02 -0.2740013E-07  0.0000000E+00  0.2900171E-05
 -0.4503035E-02  0.0000000E+00 -0.5050505E-02 -0.2560028E-07  0.0000000E+00  0.2882277E-05
 -0.4345206E-02  0.0000000E+00 -0.5050505E-02 -0.2364588E-07  0.0000000E+00  0.2865637E-05
 -0.4187378E-02  0.0000000E+00 -0.5050505E-02 -0.2151442E-07  0.0000000E+00  0.2850355E-05
 -0.3985156E-02  0.0000000E+00 -0.5050505E-02 -0.1916455E-07  0.0000000E+00  0.2836550E-05
 -0.3669499E-02  0.0000000E+00 -0.5050505E-02 -0.1652021E-07  0.0000000E+00  0.2824365E-05
 -0.3353842E-02  0.0000000E+00 -0.5050505E-02 -0.1343824E-07  0.0000000E+00  0.2813986E-05
 -0.2978990E-02  0.0000000E+00 -0.5050505E-02 -0.9639047E-08  0.0000000E+00  0.2805660E-05
 -0.2347676E-02  0.0000000E+00 -0.5050505E-02 -0.4548817E-08  0.0000000E+00  0.2799710E-05
 -0.1716362E-02  0.0000000E+00 -0.5050505E-02  0.3081108E-08  0.0000000E+00  0.2796434E-05
 -0.1025842E-02  0.0000000E+00 -0.5050505E-02  0.1614606E-07  0.0000000E+00  0.2795464E-05
  0.2367855E-03  0.0000000E+00 -0.5050505E-02  0.4180035E-07  0.0000000E+00  0.2792515E-05
  0.1499413E-02  0.0000000E+00 -0.5050505E-02  0.9876966E-07  0.0000000E+00  0.2764111E-05
  0.5287294E-02  0.0000000E+00 -0.5050505E-02  0.2383053E-06  0.0000000E+00  0.2596678E-05
 -0.5050505E-02  0.0000000E+00 -0.5050505E-02  0.1852171E-08  0.0000000E+00  0.2864089E-05
 -0.5050505E-02  0.0000000E+00 -0.5050505E-02  0.5549541E-08  0.0000000E+00  0.2865602E-05
 -0.5050505E-02  0.0000000E+00 -0.5050505E-02  0.9225707E-08  0.0000000E+00  0.2868622E-05
 -0.5050505E-02  0.0000000E+00 -0.5050505E-02  0.1286655E-07  0.0000000E+00  0.2873138E-05
 -0.5050505E-02  0.0000000E+00 -0.5050505E-02  0.1645810E-07  0.0000000E+00  0.2879133E-05
 -0.5050505E-02  0.0000000E+00 -0.5050505E-02  0.1998652E-07  0.0000000E+00  0.2886583E-05
 -0.5050504E-02  0.0000000E+00 -0.5050505E-02  0.2343812E-07  0.0000000E+00  0.2895459E-05
 -0.5050501E-02  0.0000000E+00 -0.5050505E-02  0.2679946E-07  0.0000000E+00  0.2905729E-05
 -0.5050495E-02  0.0000000E+00 -0.5050505E-02  0.3005735E-07  0.0000000E+00  0.2917352E-05
 -0.5050482E-02  0.0000000E+00 -0.5050505E-02  0.3319887E-07  0.0000000E+00  0.2930284E-05
 -0.5050449E-02  0.0000000E+00 -0.5050505E-02  0.3621149E-07  0.0000000E+00  0.2944474E-05
 -0.5050376E-02  0.0000000E+00 -0.5050505E-02  0.3908302E-07  0.0000000E+00  0.2959867E-05
 -0.5050299E-02  0.0000000E+00 -0.5050505E-02  0.4180173E-07  0.0000000E+00  0.2976404E-05
 -0.5050178E-02  0.0000000E+00 -0.5050505E-02  0.4435635E-07  0.0000000E+00  0.2994019E-05
 -0.5050018E-02  0.0000000E+00 -0.5050505E-02  0.4673611E-07  0.0000000E+00  0.3012644E-05
 -0.5049710E-02  0.0000000E+00 -0.5050505E-02  0.4893085E-07  0.0000000E+00  0.3032205E-05
 -0.5049253E-02  0.0000000E+00 -0.5050505E-02  0.5093095E-07  0.0000000E+00  0.3052624E-05
 -0.5048636E-02  0.0000000E+00 -0.5050505E-02  0.5272750E-07  0.0000000E+00  0.3073821E-05
 -0.5047442E-02  0.0000000E+00 -0.5050505E-02  0.5431225E-07  0.0000000E+00  0.3095710E-05
 -0.5045727E-02  0.0000000E+00 -0.5050505E-02  0.5567770E-07  0.0000000E+00  0.3118202E-05
 -0.5043261E-02  0.0000000E+00 -0.5050505E-02  0.5681714E-07  0.0000000E+00  0.3141209E-05
 -0.5038714E-02  0.0000000E+00 -0.5050505E-02  0.5772468E-07  0.0000000E+00  0.3164634E-05
 -0.5032318E-02  0.0000000E+00 -0.5050505E-02  0.5839529E-07  0.0000000E+00  0.3188384E-05
 -0.5022454E-02  0.0000000E+00 -0.5050505E-02  0.5882486E-07  0.0000000E+00  0.3212360E-05
 -0.5012589E-02  0.0000000E+00 -0.5050505E-02  0.5901020E-07  0.0000000E+00  0.3236462E-05
 -0.5002725E-02  0.0000000E+00 -0.5050505E-02  0.5894911E-07  0.0000000E+00  0.3260592E-05
 -0.4992860E-02  0.0000000E+00 -0.5050505E-02  0.5864037E-07  0.0000000E+00  0.3284646E-05
 -0.4976523E-02  0.0000000E+00 -0.5050505E-02  0.5808381E-07  0.0000000E+00  0.3308525E-05
 -0.4956794E-02  0.0000000E+00 -0.5050505E-02  0.5728029E-07  0.0000000E+00  0.3332127E-05
 -0.4937066E-02  0.0000000E+00 -0.5050505E-02  0.5623175E-07  0.0000000E+00  0.3355351E-05
 -0.4906239E-02  0.0000000E+00 -0.5050505E-02  0.5494121E-07  0.0000000E+00  0.3378097E-05
 -0.4866782E-02  0.0000000E+00 -0.5050505E-02  0.5341275E-07  0.0000000E+00  0.3400268E-05
 -0.4827325E-02  0.0000000E+00 -0.5050505E-02  0.5165157E-07  0.0000000E+00  0.3421767E-05
 -0.4769372E-02  0.0000000E+00 -0.5050505E-02  0.4966391E-07  0.0000000E+00  0.3442500E-05
 -0.4690458E-02  0.0000000E+00 -0.5050505E-02  0.4745710E-07  0.0000000E+00  0.3462376E-05
 -0.4611543E-02  0.0000000E+00 -0.5050505E-02  0.4503952E-07  0.0000000E+00  0.3481306E-05
 -0.4503035E-02  0.0000000E+00 -0.5050505E-02  0.4242054E-07  0.0000000E+00  0.3499206E-05
 -0.4345206E-02  0.0000000E+00 -0.5050505E-02  0.3961056E-07  0.0000000E+00  0.3515997E-05
 -0.4187378E-02  0.0000000E+00 -0.5050505E-02  0.3662089E-07  0.0000000E+00  0.3531601E-05
 -0.3985156E-02  0.0000000E+00 -0.5050505E-02  0.3346378E-07  0.0000000E+00  0.3545948E-05
 -0.3669499E-02  0.0000000E+00 -0.5050505E-02  0.3015230E-07  0.0000000E+00  0.3558971E-05
 -0.3353842E-02  0.0000000E+00 -0.5050505E-02  0.2670033E-07  0.0000000E+00  0.3570612E-05
 -0.2978990E-02  0.0000000E+00 -0.5050505E-02  0.2312246E-07  0.0000000E+00  0.3580814E-05
 -0.2347676E-02  0.0000000E+00 -0.5050505E-02  0.1943396E-07  0.0000000E+00  0.3589529E-05
 -0.1716362E-02  0.0000000E+00 -0.5050505E-02  0.1565066E-07  0.0000000E+00  0.3596715E-05
 -0.1025842E-02  0.0000000E+00 -0.5050505E-02  0.1178889E-07  0.0000000E+00  0.3602338E-05
  0.2367855E-03  0.0000000E+00 -0.5050505E-02  0.7865402E-08  0.0000000E+00  0.3606367E-05
  0.1499413E-02  0.0000000E+00 -0.5050505E-02  0.3897281E-08  0.0000000E+00  0.3608781E-05
  0.2762042E-02  0.0000000E+00 -0.5050505E-02 -0.9815792E-10  0.0000000E+00  0.3609566E-05
 -0.5050505E-02  0.0000000E+00 -0.5050505E-02 -0.4103457E-08  0.0000000E+00  0.3608713E-05
 -0.5050505E-02  0.0000000E+00 -0.5050505E-02 -0.8101113E-08  0.0000000E+00  0.3606223E-05
 -0.5050505E-02  0.0000000E+00 -0.5050505E-02 -0.1207365E-07  0.0000000E+00  0.3602102E-05
 -0.5050505E-02  0.0000000E+00 -0.5050505E-02 -0.1600372E-07  0.0000000E+00  0.3596363E-05
 -0.5050505E-02  0.0000000E+00 -0.5050505E-02 -0.1987422E-07  0.0000000E+00  0.3589029E-05
 -0.5050505E-02  0.0000000E+00 -0.5050505E-02 -0.2366835E-07  0.0000000E+00  0.3580126E-05
 -0.5050505E-02  0.0000000E+00 -0.5050505E-02 -0.2736972E-07  0.0000000E+00  0.3569690E-05
 -0.5050504E-02  0.0000000E+00 -0.5050505E-02 -0.3096244E-07  0.0000000E+00  0.3557761E-05
 -0.5050501E-02  0.0000000E+00 -0.5050505E-02 -0.3443114E-07  0.0000000E+00  0.3544388E-05
 -0.5050495E-02  0.0000000E+00 -0.5050505E-02 -0.3776115E-07  0.0000000E+00  0.3529623E-05
 -0.5050482E-02  0.0000000E+00 -0.5050505E-02 -0.4093845E-07  0.0000000E+00  0.3513528E-05
 -0.5050449E-02  0.0000000E+00 -0.5050505E-02 -0.4394984E-07  0.0000000E+00  0.3496167E-05
 -0.5050376E-02  0.0000000E+00 -0.5050505E-02 -0.4678292E-07  0.0000000E+00  0.3477610E-05
 -0.5050299E-02  0.0000000E+00 -0.5050505E-02 -0.4942618E-07  0.0000000E+00  0.3457934E-05
 -0.5050178E-02  0.0000000E+00 -0.5050505E-02 -0.5186904E-07  0.0000000E+00  0.3437218E-05
 -0.5050018E-02  0.0000000E+00 -0.5050505E-02 -0.5410186E-07  0.0000000E+00  0.3415545E-05
 -0.5049710E-02  0.0000000E+00 -0.5050505E-02 -0.5611602E-07  0.0000000E+00  0.3393005E-05
 -0.5049253E-02  0.0000000E+00 -0.5050505E-02 -0.5790389E-07  0.0000000E+00  0.3369687E-05
 -0.5048636E-02  0.0000000E+00 -0.5050505E-02 -0.5945887E-07  0.0000000E+00  0.3345687E-05
 -0.5047442E-02  0.0000000E+00 -0.5050505E-02 -0.6077540E-07  0.0000000E+00  0.3321100E-05
 -0.5045727E-02  0.0000000E+00 -0.5050505E-02 -0.6184895E-07  0.0000000E+00  0.3296025E-05
 -0.5043261E-02  0.0000000E+00 -0.5050505E-02 -0.6267604E-07  0.0000000E+00  0.3270562E-05
 -0.5038714E-02  0.0000000E+00 -0.5050505E-02 -0.6325417E-07  0.0000000E+00  0.3244812E-05
 -0.5032318E-02  0.0000000E+00 -0.5050505E-02 -0.6358184E-07  0.0000000E+00  0.3218877E-05
 -0.5022454E-02  0.0000000E+00 -0.5050505E-02 -0.6365851E-07  0.0000000E+00  0.3192861E-05
 -0.5012589E-02  0.0000000E+00 -0.5050505E-02 -0.6348455E-07  0.0000000E+00  0.3166865E-05
 -0.5002725E-02  0.0000000E+00 -0.5050505E-02 -0.6306118E-07  0.0000000E+00  0.3140991E-05
 -0.4992860E-02  0.0000000E+00 -0.5050505E-02 -0.6239043E-07  0.0000000E+00  0.3115341E-05
 -0.4976523E-02  0.0000000E+00 -0.5050505E-02 -0.6147502E-07  0.0000000E+00  0.3090016E-05
 -0.4956794E-02  0.0000000E+00 -0.5050505E-02 -0.6031827E-07  0.0000000E+00  0.3065114E-05
 -0.4937066E-02  0.0000000E+00 -0.5050505E-02 -0.5892395E-07  0.0000000E+00  0.3040732E-05
 -0.4906239E-02  0.0000000E+00 -0.5050505E-02 -0.5729609E-07  0.0000000E+00  0.3016967E-05
 -0.4866782E-02  0.0000000E+00 -0.5050505E-02 -0.5543872E-07  0.0000000E+00  0.2993911E-05
 -0.4827325E-02  0.0000000E+00 -0.5050505E-02 -0.5335551E-07  0.0000000E+00  0.2971658E-05
 -0.4769372E-02  0.0000000E+00 -0.5050505E-02 -0.5104922E-07  0.0000000E+00  0.2950296E-05
 -0.4690458E-02  0.0000000E+00 -0.5050505E-02 -0.4852093E-07  0.0000000E+00  0.2929913E-05
 -0.4611543E-02  0.0000000E+00 -0.5050505E-02 -0.4576876E-07  0.0000000E+00  0.2910597E-05
 -0.4503035E-02  0.0000000E+00 -0.5050505E-02 -0.4278598E-07  0.0000000E+00  0.2892433E-05
 -0.4345206E-02  0.0000000E+00 -0.5050505E-02 -0.3955782E-07  0.0000000E+00  0.2875508E-05
 -0.4187378E-02  0.0000000E+00 -0.5050505E-02 -0.3605608E-07  0.0000000E+00  0.2859906E-05
 -0.3985156E-02  0.0000000E+00 -0.5050505E-02 -0.3222999E-07  0.0000000E+00  0.2845717E-05
 -0.3669499E-02  0.0000000E+00 -0.5050505E-02 -0.2798984E-07  0.0000000E+00  0.2833025E-05
 -0.3353842E-02  0.0000000E+00 -0.5050505E-02 -0.2317751E-07  0.0000000E+00  0.2821904E-05
 -0.2978990E-02  0.0000000E+00 -0.5050505E-02 -0.1751265E-07  0.0000000E+00  0.2812385E-05
 -0.2347676E-02  0.0000000E+00 -0.5050505E-02 -0.1049639E-07  0.0000000E+00  0.2804355E-05
 -0.1716362E-02  0.0000000E+00 -0.5050505E-02 -0.1252828E-08  0.0000000E+00  0.2797283E-05
 -0.1025842E-02  0.0000000E+00 -0.5050505E-02  0.1165552E-07  0.0000000E+00  0.2789486E-05
  0.2367855E-03  0.0000000E+00 -0.5050505E-02  0.3003461E-07  0.0000000E+00  0.2776412E-05
  0.1499413E-02  0.0000000E+00 -0.5050505E-02  0.5322858E-07  0.0000000E+00  0.2747975E-05
  0.5287294E-02  0.0000000E+00 -0.5050505E-02  0.6178984E-07  0.0000000E+00  0.2693982E-05
 -0.5050505E-02  0.0000000E+00 -0.5050505E-02  0.2601231E-08  0.0000000E+00  0.2878563E-05
 -0.5050505E-02  0.0000000E+00 -0.5050505E-02  0.7793888E-08  0.0000000E+00  0.2880102E-05
 -0.5050505E-02  0.0000000E+00 -0.5050505E-02  0.1295680E-07  0.0000000E+00  0.2883175E-05
 -0.5050505E-02  0.0000000E+00 -0.5050505E-02  0.1807016E-07  0.0000000E+00  0.2887770E-05
 -0.5050505E-02  0.0000000E+00 -0.5050505E-02  0.2311436E-07  0.0000000E+00  0.2893868E-05
 -0.5050505E-02  0.0000000E+00 -0.5050505E-02  0.2806998E-07  0.0000000E+00  0.2901448E-05
 -0.5050504E-02  0.0000000E+00 -0.5050505E-02  0.3291783E-07  0.0000000E+00  0.2910479E-05
 -0.5050501E-02  0.0000000E+00 -0.5050505E-02  0.3763904E-07  0.0000000E+00  0.2920928E-05
 -0.5050495E-02  0.0000000E+00 -0.5050505E-02  0.4221507E-07  0.0000000E+00  0.2932755E-05
 -0.5050482E-02  0.0000000E+00 -0.5050505E-02  0.4662784E-07  0.0000000E+00  0.2945913E-05
 -0.5050449E-02  0.0000000E+00 -0.5050505E-02  0.5085971E-07  0.0000000E+00  0.2960352E-05
 -0.5050376E-02  0.0000000E+00 -0.5050505E-02  0.5489359E-07  0.0000000E+00  0.2976016E-05
 -0.5050299E-02  0.0000000E+00 -0.5050505E-02  0.5871300E-07  0.0000000E+00  0.2992844E-05
 -0.5050178E-02  0.0000000E+00 -0.5050505E-02  0.6230210E-07  0.0000000E+00  0.3010771E-05
 -0.5050018E-02  0.0000000E+00 -0.5050505E-02  0.6564580E-07  0.0000000E+00  0.3029726E-05
 -0.5049710E-02  0.0000000E+00 -0.5050505E-02  0.6872975E-07  0.0000000E+00  0.3049635E-05
 -0.5049253E-02  0.0000000E+00 -0.5050505E-02  0.7154050E-07  0.0000000E+00  0.3070418E-05
 -0.5048636E-02  0.0000000E+00 -0.5050505E-02  0.7406548E-07  0.0000000E+00  0.3091994E-05
 -0.5047442E-02  0.0000000E+00 -0.5050505E-02  0.7629310E-07  0.0000000E+00  0.3114275E-05
 -0.5045727E-02  0.0000000E+00 -0.5050505E-02  0.7821281E-07  0.0000000E+00  0.3137173E-05
 -0.5043261E-02  0.0000000E+00 -0.5050505E-02  0.7981516E-07  0.0000000E+00  0.3160595E-05
 -0.5038714E-02  0.0000000E+00 -0.5050505E-02  0.8109184E-07  0.0000000E+00  0.3184446E-05
 -0.5032318E-02  0.0000000E+00 -0.5050505E-02  0.8203579E-07  0.0000000E+00  0.3208628E-05
 -0.5022454E-02  0.0000000E+00 -0.5050505E-02  0.8264118E-07  0.0000000E+00  0.3233042E-05
 -0.5012589E-02  0.0000000E+00 -0.5050505E-02  0.8290351E-07  0.0000000E+00  0.3257586E-05
 -0.5002725E-02  0.0000000E+00 -0.5050505E-02  0.8281966E-07  0.0000000E+00  0.3282160E-05
 -0.4992860E-02  0.0000000E+00 -0.5050505E-02  0.8238790E-07  0.0000000E+00  0.3306659E-05
 -0.4976523E-02  0.0000000E+00 -0.5050505E-02  0.8160795E-07  0.0000000E+00  0.3330981E-05
 -0.4956794E-02  0.0000000E+00 -0.5050505E-02  0.8048100E-07  0.0000000E+00  0.3355022E-05
 -0.4937066E-02  0.0000000E+00 -0.5050505E-02  0.7900975E-07  0.0000000E+00  0.3378680E-05