title = "dataset feddes"
variables = "x", "y", "z", "vx", "vy", "vz"
zone t = "velocities, solution time =  6.000E+01 days        " i =   99, j =   99, k =    1,  f=point
 -0.5050505E-02  0.0000000E+00 -0.5050505E-02  0.2589473E-08  0.0000000E+00  0.2714129E-04
 -0.5050505E-02  0.0000000E+00 -0.5050505E-02  0.7758580E-08  0.0000000E+00  0.2715170E-04
 -0.5050505E-02  0.0000000E+00 -0.5050505E-02  0.1289763E-07  0.0000000E+00  0.2717249E-04
 -0.5050505E-02  0.0000000E+00 -0.5050505E-02  0.1798664E-07  0.0000000E+00  0.2720358E-04
 -0.5050505E-02  0.0000000E+00 -0.5050505E-02  0.2300582E-07  0.0000000E+00  0.2724484E-04
 -0.5050505E-02  0.0000000E+00 -0.5050505E-02  0.2793555E-07  0.0000000E+00  0.2729612E-04
 -0.5050504E-02  0.0000000E+00 -0.5050505E-02  0.3275650E-07  0.0000000E+00  0.2735721E-04
 -0.5050501E-02  0.0000000E+00 -0.5050505E-02  0.3744961E-07  0.0000000E+00  0.2742788E-04
 -0.5050495E-02  0.0000000E+00 -0.5050505E-02  0.4199623E-07  0.0000000E+00  0.2750784E-04
 -0.5050482E-02  0.0000000E+00 -0.5050505E-02  0.4637811E-07  0.0000000E+00  0.2759680E-04
 -0.5050449E-02  0.0000000E+00 -0.5050505E-02  0.5057751E-07  0.0000000E+00  0.2769439E-04
 -0.5050376E-02  0.0000000E+00 -0.5050505E-02  0.5457725E-07  0.0000000E+00  0.2780024E-04
 -0.5050299E-02  0.0000000E+00 -0.5050505E-02  0.5836073E-07  0.0000000E+00  0.2791392E-04
 -0.5050178E-02  0.0000000E+00 -0.5050505E-02  0.6191207E-07  0.0000000E+00  0.2803498E-04
 -0.5050018E-02  0.0000000E+00 -0.5050505E-02  0.6521610E-07  0.0000000E+00  0.2816295E-04
 -0.5049710E-02  0.0000000E+00 -0.5050505E-02  0.6825846E-07  0.0000000E+00  0.2829730E-04
 -0.5049253E-02  0.0000000E+00 -0.5050505E-02  0.7102566E-07  0.0000000E+00  0.2843751E-04
 -0.5048636E-02  0.0000000E+00 -0.5050505E-02  0.7350512E-07  0.0000000E+00  0.2858299E-04
 -0.5047442E-02  0.0000000E+00 -0.5050505E-02  0.7568528E-07  0.0000000E+00  0.2873317E-04
 -0.5045727E-02  0.0000000E+00 -0.5050505E-02  0.7755561E-07  0.0000000E+00  0.2888742E-04
 -0.5043261E-02  0.0000000E+00 -0.5050505E-02  0.7910669E-07  0.0000000E+00  0.2904512E-04
 -0.5038714E-02  0.0000000E+00 -0.5050505E-02  0.8033029E-07  0.0000000E+00  0.2920561E-04
 -0.5032318E-02  0.0000000E+00 -0.5050505E-02  0.8121939E-07  0.0000000E+00  0.2936823E-04
 -0.5022454E-02  0.0000000E+00 -0.5050505E-02  0.8176825E-07  0.0000000E+00  0.2953230E-04
 -0.5012589E-02  0.0000000E+00 -0.5050505E-02  0.8197248E-07  0.0000000E+00  0.2969713E-04
 -0.5002725E-02  0.0000000E+00 -0.5050505E-02  0.8182903E-07  0.0000000E+00  0.2986202E-04
 -0.4992860E-02  0.0000000E+00 -0.5050505E-02  0.8133631E-07  0.0000000E+00  0.3002627E-04
 -0.4976523E-02  0.0000000E+00 -0.5050505E-02  0.8049414E-07  0.0000000E+00  0.3018918E-04
 -0.4956794E-02  0.0000000E+00 -0.5050505E-02  0.7930384E-07  0.0000000E+00  0.3035004E-04
 -0.4937066E-02  0.0000000E+00 -0.5050505E-02  0.7776826E-07  0.0000000E+00  0.3050816E-04
 -0.4906239E-02  0.0000000E+00 -0.5050505E-02  0.7589172E-07  0.0000000E+00  0.3066284E-04
 -0.4866782E-02  0.0000000E+00 -0.5050505E-02  0.7368010E-07  0.0000000E+00  0.3081341E-04
 -0.4827325E-02  0.0000000E+00 -0.5050505E-02  0.7114082E-07  0.0000000E+00  0.3095920E-04
 -0.4769372E-02  0.0000000E+00 -0.5050505E-02  0.6828281E-07  0.0000000E+00  0.3109956E-04
 -0.4690458E-02  0.0000000E+00 -0.5050505E-02  0.6511648E-07  0.0000000E+00  0.3123385E-04
 -0.4611543E-02  0.0000000E+00 -0.5050505E-02  0.6165377E-07  0.0000000E+00  0.3136147E-04
 -0.4503035E-02  0.0000000E+00 -0.5050505E-02  0.5790800E-07  0.0000000E+00  0.3148183E-04
 -0.4345206E-02  0.0000000E+00 -0.5050505E-02  0.5389394E-07  0.0000000E+00  0.3159438E-04
 -0.4187378E-02  0.0000000E+00 -0.5050505E-02  0.4962767E-07  0.0000000E+00  0.3169860E-04
 -0.3985156E-02  0.0000000E+00 -0.5050505E-02  0.4512654E-07  0.0000000E+00  0.3179399E-04
 -0.3669499E-02  0.0000000E+00 -0.5050505E-02  0.4040912E-07  0.0000000E+00  0.3188010E-04
 -0.3353842E-02  0.0000000E+00 -0.5050505E-02  0.3549508E-07  0.0000000E+00  0.3195651E-04
 -0.2978990E-02  0.0000000E+00 -0.5050505E-02  0.3040512E-07  0.0000000E+00  0.3202285E-04
 -0.2347676E-02  0.0000000E+00 -0.5050505E-02  0.2516088E-07  0.0000000E+00  0.3207879E-04
 -0.1716362E-02  0.0000000E+00 -0.5050505E-02  0.1978479E-07  0.0000000E+00  0.3212404E-04
 -0.1025842E-02  0.0000000E+00 -0.5050505E-02  0.1430001E-07  0.0000000E+00  0.3215836E-04
  0.2367855E-03  0.0000000E+00 -0.5050505E-02  0.8730266E-08  0.0000000E+00  0.3218154E-04
  0.1499413E-02  0.0000000E+00 -0.5050505E-02  0.3099753E-08  0.0000000E+00  0.3219345E-04
  0.2762042E-02  0.0000000E+00 -0.5050505E-02 -0.2566997E-08  0.0000000E+00  0.3219399E-04
 -0.5050505E-02  0.0000000E+00 -0.5050505E-02 -0.8245249E-08  0.0000000E+00  0.3218310E-04
 -0.5050505E-02  0.0000000E+00 -0.5050505E-02 -0.1391020E-07  0.0000000E+00  0.3216080E-04
 -0.5050505E-02  0.0000000E+00 -0.5050505E-02 -0.1953712E-07  0.0000000E+00  0.3212713E-04
 -0.5050505E-02  0.0000000E+00 -0.5050505E-02 -0.2510144E-07  0.0000000E+00  0.3208219E-04
 -0.5050505E-02  0.0000000E+00 -0.5050505E-02 -0.3057897E-07  0.0000000E+00  0.3202613E-04
 -0.5050505E-02  0.0000000E+00 -0.5050505E-02 -0.3594591E-07  0.0000000E+00  0.3195916E-04
 -0.5050505E-02  0.0000000E+00 -0.5050505E-02 -0.4117906E-07  0.0000000E+00  0.3188152E-04
 -0.5050504E-02  0.0000000E+00 -0.5050505E-02 -0.4625593E-07  0.0000000E+00  0.3179350E-04
 -0.5050501E-02  0.0000000E+00 -0.5050505E-02 -0.5115478E-07  0.0000000E+00  0.3169543E-04
 -0.5050495E-02  0.0000000E+00 -0.5050505E-02 -0.5585482E-07  0.0000000E+00  0.3158770E-04
 -0.5050482E-02  0.0000000E+00 -0.5050505E-02 -0.6033622E-07  0.0000000E+00  0.3147073E-04
 -0.5050449E-02  0.0000000E+00 -0.5050505E-02 -0.6458028E-07  0.0000000E+00  0.3134498E-04
 -0.5050376E-02  0.0000000E+00 -0.5050505E-02 -0.6856944E-07  0.0000000E+00  0.3121094E-04
 -0.5050299E-02  0.0000000E+00 -0.5050505E-02 -0.7228739E-07  0.0000000E+00  0.3106914E-04
 -0.5050178E-02  0.0000000E+00 -0.5050505E-02 -0.7571912E-07  0.0000000E+00  0.3092015E-04
 -0.5050018E-02  0.0000000E+00 -0.5050505E-02 -0.7885095E-07  0.0000000E+00  0.3076454E-04
 -0.5049710E-02  0.0000000E+00 -0.5050505E-02 -0.8167063E-07  0.0000000E+00  0.3060295E-04
 -0.5049253E-02  0.0000000E+00 -0.5050505E-02 -0.8416730E-07  0.0000000E+00  0.3043601E-04
 -0.5048636E-02  0.0000000E+00 -0.5050505E-02 -0.8633155E-07  0.0000000E+00  0.3026437E-04
 -0.5047442E-02  0.0000000E+00 -0.5050505E-02 -0.8815540E-07  0.0000000E+00  0.3008872E-04
 -0.5045727E-02  0.0000000E+00 -0.5050505E-02 -0.8963234E-07  0.0000000E+00  0.2990975E-04
 -0.5043261E-02  0.0000000E+00 -0.5050505E-02 -0.9075727E-07  0.0000000E+00  0.2972817E-04
 -0.5038714E-02  0.0000000E+00 -0.5050505E-02 -0.9152650E-07  0.0000000E+00  0.2954467E-04
 -0.5032318E-02  0.0000000E+00 -0.5050505E-02 -0.9193768E-07  0.0000000E+00  0.2935999E-04
 -0.5022454E-02  0.0000000E+00 -0.5050505E-02 -0.9198980E-07  0.0000000E+00  0.2917484E-04
 -0.5012589E-02  0.0000000E+00 -0.5050505E-02 -0.9168305E-07  0.0000000E+00  0.2898996E-04
 -0.5002725E-02  0.0000000E+00 -0.5050505E-02 -0.9101876E-07  0.0000000E+00  0.2880605E-04
 -0.4992860E-02  0.0000000E+00 -0.5050505E-02 -0.8999926E-07  0.0000000E+00  0.2862383E-04
 -0.4976523E-02  0.0000000E+00 -0.5050505E-02 -0.8862775E-07  0.0000000E+00  0.2844402E-04
 -0.4956794E-02  0.0000000E+00 -0.5050505E-02 -0.8690804E-07  0.0000000E+00  0.2826733E-04
 -0.4937066E-02  0.0000000E+00 -0.5050505E-02 -0.8484431E-07  0.0000000E+00  0.2809445E-04
 -0.4906239E-02  0.0000000E+00 -0.5050505E-02 -0.8244066E-07  0.0000000E+00  0.2792606E-04
 -0.4866782E-02  0.0000000E+00 -0.5050505E-02 -0.7970059E-07  0.0000000E+00  0.2776285E-04
 -0.4827325E-02  0.0000000E+00 -0.5050505E-02 -0.7662615E-07  0.0000000E+00  0.2760550E-04
 -0.4769372E-02  0.0000000E+00 -0.5050505E-02 -0.7321670E-07  0.0000000E+00  0.2745467E-04
 -0.4690458E-02  0.0000000E+00 -0.5050505E-02 -0.6946693E-07  0.0000000E+00  0.2731105E-04
 -0.4611543E-02  0.0000000E+00 -0.5050505E-02 -0.6536374E-07  0.0000000E+00  0.2717533E-04
 -0.4503035E-02  0.0000000E+00 -0.5050505E-02 -0.6088094E-07  0.0000000E+00  0.2704826E-04
 -0.4345206E-02  0.0000000E+00 -0.5050505E-02 -0.5597011E-07  0.0000000E+00  0.2693065E-04
 -0.4187378E-02  0.0000000E+00 -0.5050505E-02 -0.5054393E-07  0.0000000E+00  0.2682343E-04
 -0.3985156E-02  0.0000000E+00 -0.5050505E-02 -0.4444435E-07  0.0000000E+00  0.2672782E-04
 -0.3669499E-02  0.0000000E+00 -0.5050505E-02 -0.3737838E-07  0.0000000E+00  0.2664547E-04
 -0.3353842E-02  0.0000000E+00 -0.5050505E-02 -0.2877945E-07  0.0000000E+00  0.2657888E-04
 -0.2978990E-02  0.0000000E+00 -0.5050505E-02 -0.1748568E-07  0.0000000E+00  0.2653231E-04
 -0.2347676E-02  0.0000000E+00 -0.5050505E-02 -0.9275730E-09  0.0000000E+00  0.2651377E-04
 -0.1716362E-02  0.0000000E+00 -0.5050505E-02  0.2711615E-07  0.0000000E+00  0.2654013E-04
 -0.1025842E-02  0.0000000E+00 -0.5050505E-02  0.8332427E-07  0.0000000E+00  0.2665130E-04
  0.2367855E-03  0.0000000E+00 -0.5050505E-02  0.2174336E-06  0.0000000E+00  0.2695402E-04
  0.1499413E-02  0.0000000E+00 -0.5050505E-02  0.5938141E-06  0.0000000E+00  0.2777059E-04
  0.5287294E-02  0.0000000E+00 -0.5050505E-02  0.9805085E-05  0.0000000E+00  0.2218711E-04
 -0.5050505E-02  0.0000000E+00 -0.5050505E-02  0.7767139E-08  0.0000000E+00  0.2717133E-04
 -0.5050505E-02  0.0000000E+00 -0.5050505E-02  0.2327179E-07  0.0000000E+00  0.2718180E-04
 -0.5050505E-02  0.0000000E+00 -0.5050505E-02  0.3868635E-07  0.0000000E+00  0.2720269E-04
 -0.5050505E-02  0.0000000E+00 -0.5050505E-02  0.5395086E-07  0.0000000E+00  0.2723394E-04
 -0.5050505E-02  0.0000000E+00 -0.5050505E-02  0.6900598E-07  0.0000000E+00  0.2727541E-04
 -0.5050505E-02  0.0000000E+00 -0.5050505E-02  0.8379293E-07  0.0000000E+00  0.2732695E-04
 -0.5050504E-02  0.0000000E+00 -0.5050505E-02  0.9825367E-07  0.0000000E+00  0.2738835E-04
 -0.5050501E-02  0.0000000E+00 -0.5050505E-02  0.1123311E-06  0.0000000E+00  0.2745938E-04
 -0.5050495E-02  0.0000000E+00 -0.5050505E-02  0.1259692E-06  0.0000000E+00  0.2753976E-04
 -0.5050482E-02  0.0000000E+00 -0.5050505E-02  0.1391134E-06  0.0000000E+00  0.2762917E-04
 -0.5050449E-02  0.0000000E+00 -0.5050505E-02  0.1517104E-06  0.0000000E+00  0.2772727E-04
 -0.5050376E-02  0.0000000E+00 -0.5050505E-02  0.1637087E-06  0.0000000E+00  0.2783366E-04
 -0.5050299E-02  0.0000000E+00 -0.5050505E-02  0.1750584E-06  0.0000000E+00  0.2794794E-04
 -0.5050178E-02  0.0000000E+00 -0.5050505E-02  0.1857120E-06  0.0000000E+00  0.2806963E-04
 -0.5050018E-02  0.0000000E+00 -0.5050505E-02  0.1956240E-06  0.0000000E+00  0.2819827E-04
 -0.5049710E-02  0.0000000E+00 -0.5050505E-02  0.2047512E-06  0.0000000E+00  0.2833332E-04
 -0.5049253E-02  0.0000000E+00 -0.5050505E-02  0.2130532E-06  0.0000000E+00  0.2847426E-04
 -0.5048636E-02  0.0000000E+00 -0.5050505E-02  0.2204923E-06  0.0000000E+00  0.2862052E-04
 -0.5047442E-02  0.0000000E+00 -0.5050505E-02  0.2270337E-06  0.0000000E+00  0.2877149E-04
 -0.5045727E-02  0.0000000E+00 -0.5050505E-02  0.2326459E-06  0.0000000E+00  0.2892656E-04
 -0.5043261E-02  0.0000000E+00 -0.5050505E-02  0.2373006E-06  0.0000000E+00  0.2908511E-04
 -0.5038714E-02  0.0000000E+00 -0.5050505E-02  0.2409730E-06  0.0000000E+00  0.2924646E-04
 -0.5032318E-02  0.0000000E+00 -0.5050505E-02  0.2436421E-06  0.0000000E+00  0.2940996E-04
 -0.5022454E-02  0.0000000E+00 -0.5050505E-02  0.2452906E-06  0.0000000E+00  0.2957492E-04
 -0.5012589E-02  0.0000000E+00 -0.5050505E-02  0.2459054E-06  0.0000000E+00  0.2974064E-04
 -0.5002725E-02  0.0000000E+00 -0.5050505E-02  0.2454773E-06  0.0000000E+00  0.2990643E-04
 -0.4992860E-02  0.0000000E+00 -0.5050505E-02  0.2440014E-06  0.0000000E+00  0.3007159E-04
 -0.4976523E-02  0.0000000E+00 -0.5050505E-02  0.2414772E-06  0.0000000E+00  0.3023539E-04
 -0.4956794E-02  0.0000000E+00 -0.5050505E-02  0.2379086E-06  0.0000000E+00  0.3039715E-04
 -0.4937066E-02  0.0000000E+00 -0.5050505E-02  0.2333042E-06  0.0000000E+00  0.3055615E-04
 -0.4906239E-02  0.0000000E+00 -0.5050505E-02  0.2276768E-06  0.0000000E+00  0.3071170E-04
 -0.4866782E-02  0.0000000E+00 -0.5050505E-02  0.2210442E-06  0.0000000E+00  0.3086312E-04
 -0.4827325E-02  0.0000000E+00 -0.5050505E-02  0.2134285E-06  0.0000000E+00  0.3100974E-04
 -0.4769372E-02  0.0000000E+00 -0.5050505E-02  0.2048565E-06  0.0000000E+00  0.3115089E-04
 -0.4690458E-02  0.0000000E+00 -0.5050505E-02  0.1953594E-06  0.0000000E+00  0.3128596E-04
 -0.4611543E-02  0.0000000E+00 -0.5050505E-02  0.1849730E-06  0.0000000E+00  0.3141431E-04
 -0.4503035E-02  0.0000000E+00 -0.5050505E-02  0.1737374E-06  0.0000000E+00  0.3153537E-04
 -0.4345206E-02  0.0000000E+00 -0.5050505E-02  0.1616966E-06  0.0000000E+00  0.3164859E-04
 -0.4187378E-02  0.0000000E+00 -0.5050505E-02  0.1488991E-06  0.0000000E+00  0.3175342E-04
 -0.3985156E-02  0.0000000E+00 -0.5050505E-02  0.1353968E-06  0.0000000E+00  0.3184937E-04
 -0.3669499E-02  0.0000000E+00 -0.5050505E-02  0.1212455E-06  0.0000000E+00  0.3193600E-04
 -0.3353842E-02  0.0000000E+00 -0.5050505E-02  0.1065042E-06  0.0000000E+00  0.3201288E-04
 -0.2978990E-02  0.0000000E+00 -0.5050505E-02  0.9123496E-07  0.0000000E+00  0.3207964E-04
 -0.2347676E-02  0.0000000E+00 -0.5050505E-02  0.7550274E-07  0.0000000E+00  0.3213593E-04
 -0.1716362E-02  0.0000000E+00 -0.5050505E-02  0.5937486E-07  0.0000000E+00  0.3218147E-04
 -0.1025842E-02  0.0000000E+00 -0.5050505E-02  0.4292079E-07  0.0000000E+00  0.3221602E-04
  0.2367855E-03  0.0000000E+00 -0.5050505E-02  0.2621174E-07  0.0000000E+00  0.3223938E-04
  0.1499413E-02  0.0000000E+00 -0.5050505E-02  0.9320339E-08  0.0000000E+00  0.3225140E-04
  0.2762042E-02  0.0000000E+00 -0.5050505E-02 -0.7679821E-08  0.0000000E+00  0.3225198E-04
 -0.5050505E-02  0.0000000E+00 -0.5050505E-02 -0.2471451E-07  0.0000000E+00  0.3224107E-04
 -0.5050505E-02  0.0000000E+00 -0.5050505E-02 -0.4170930E-07  0.0000000E+00  0.3221869E-04
 -0.5050505E-02  0.0000000E+00 -0.5050505E-02 -0.5858995E-07  0.0000000E+00  0.3218487E-04
 -0.5050505E-02  0.0000000E+00 -0.5050505E-02 -0.7528279E-07  0.0000000E+00  0.3213972E-04
 -0.5050505E-02  0.0000000E+00 -0.5050505E-02 -0.9171515E-07  0.0000000E+00  0.3208340E-04
 -0.5050505E-02  0.0000000E+00 -0.5050505E-02 -0.1078157E-06  0.0000000E+00  0.3201609E-04
 -0.5050505E-02  0.0000000E+00 -0.5050505E-02 -0.1235148E-06  0.0000000E+00  0.3193806E-04
 -0.5050504E-02  0.0000000E+00 -0.5050505E-02 -0.1387449E-06  0.0000000E+00  0.3184959E-04
 -0.5050501E-02  0.0000000E+00 -0.5050505E-02 -0.1534408E-06  0.0000000E+00  0.3175102E-04
 -0.5050495E-02  0.0000000E+00 -0.5050505E-02 -0.1675402E-06  0.0000000E+00  0.3164274E-04
 -0.5050482E-02  0.0000000E+00 -0.5050505E-02 -0.1809835E-06  0.0000000E+00  0.3152516E-04
 -0.5050449E-02  0.0000000E+00 -0.5050505E-02 -0.1937147E-06  0.0000000E+00  0.3139876E-04
 -0.5050376E-02  0.0000000E+00 -0.5050505E-02 -0.2056811E-06  0.0000000E+00  0.3126402E-04
 -0.5050299E-02  0.0000000E+00 -0.5050505E-02 -0.2168337E-06  0.0000000E+00  0.3112148E-04
 -0.5050178E-02  0.0000000E+00 -0.5050505E-02 -0.2271275E-06  0.0000000E+00  0.3097171E-04
 -0.5050018E-02  0.0000000E+00 -0.5050505E-02 -0.2365216E-06  0.0000000E+00  0.3081530E-04
 -0.5049710E-02  0.0000000E+00 -0.5050505E-02 -0.2449792E-06  0.0000000E+00  0.3065286E-04
 -0.5049253E-02  0.0000000E+00 -0.5050505E-02 -0.2524677E-06  0.0000000E+00  0.3048505E-04
 -0.5048636E-02  0.0000000E+00 -0.5050505E-02 -0.2589589E-06  0.0000000E+00  0.3031253E-04
 -0.5047442E-02  0.0000000E+00 -0.5050505E-02 -0.2644290E-06  0.0000000E+00  0.3013597E-04
 -0.5045727E-02  0.0000000E+00 -0.5050505E-02 -0.2688585E-06  0.0000000E+00  0.2995607E-04
 -0.5043261E-02  0.0000000E+00 -0.5050505E-02 -0.2722320E-06  0.0000000E+00  0.2977354E-04
 -0.5038714E-02  0.0000000E+00 -0.5050505E-02 -0.2745387E-06  0.0000000E+00  0.2958910E-04
 -0.5032318E-02  0.0000000E+00 -0.5050505E-02 -0.2757715E-06  0.0000000E+00  0.2940347E-04
 -0.5022454E-02  0.0000000E+00 -0.5050505E-02 -0.2759274E-06  0.0000000E+00  0.2921737E-04
 -0.5012589E-02  0.0000000E+00 -0.5050505E-02 -0.2750071E-06  0.0000000E+00  0.2903153E-04
 -0.5002725E-02  0.0000000E+00 -0.5050505E-02 -0.2730147E-06  0.0000000E+00  0.2884667E-04
 -0.4992860E-02  0.0000000E+00 -0.5050505E-02 -0.2699575E-06  0.0000000E+00  0.2866352E-04
 -0.4976523E-02  0.0000000E+00 -0.5050505E-02 -0.2658450E-06  0.0000000E+00  0.2848279E-04
 -0.4956794E-02  0.0000000E+00 -0.5050505E-02 -0.2606892E-06  0.0000000E+00  0.2830518E-04
 -0.4937066E-02  0.0000000E+00 -0.5050505E-02 -0.2545028E-06  0.0000000E+00  0.2813139E-04
 -0.4906239E-02  0.0000000E+00 -0.5050505E-02 -0.2472987E-06  0.0000000E+00  0.2796211E-04
 -0.4866782E-02  0.0000000E+00 -0.5050505E-02 -0.2390883E-06  0.0000000E+00  0.2779803E-04
 -0.4827325E-02  0.0000000E+00 -0.5050505E-02 -0.2298789E-06  0.0000000E+00  0.2763980E-04
 -0.4769372E-02  0.0000000E+00 -0.5050505E-02 -0.2196706E-06  0.0000000E+00  0.2748811E-04
 -0.4690458E-02  0.0000000E+00 -0.5050505E-02 -0.2084504E-06  0.0000000E+00  0.2734362E-04
 -0.4611543E-02  0.0000000E+00 -0.5050505E-02 -0.1961845E-06  0.0000000E+00  0.2720700E-04
 -0.4503035E-02  0.0000000E+00 -0.5050505E-02 -0.1828035E-06  0.0000000E+00  0.2707896E-04
 -0.4345206E-02  0.0000000E+00 -0.5050505E-02 -0.1681789E-06  0.0000000E+00  0.2696025E-04
 -0.4187378E-02  0.0000000E+00 -0.5050505E-02 -0.1520807E-06  0.0000000E+00  0.2685171E-04
 -0.3985156E-02  0.0000000E+00 -0.5050505E-02 -0.1340992E-06  0.0000000E+00  0.2675434E-04
 -0.3669499E-02  0.0000000E+00 -0.5050505E-02 -0.1134942E-06  0.0000000E+00  0.2666939E-04
 -0.3353842E-02  0.0000000E+00 -0.5050505E-02 -0.8888825E-07  0.0000000E+00  0.2659849E-04
 -0.2978990E-02  0.0000000E+00 -0.5050505E-02 -0.5760738E-07  0.0000000E+00  0.2654391E-04
 -0.2347676E-02  0.0000000E+00 -0.5050505E-02 -0.1418329E-07  0.0000000E+00  0.2650861E-04
 -0.1716362E-02  0.0000000E+00 -0.5050505E-02  0.5326069E-07  0.0000000E+00  0.2649537E-04
 -0.1025842E-02  0.0000000E+00 -0.5050505E-02  0.1722384E-06  0.0000000E+00  0.2650065E-04
  0.2367855E-03  0.0000000E+00 -0.5050505E-02  0.4107102E-06  0.0000000E+00  0.2648366E-04
  0.1499413E-02  0.0000000E+00 -0.5050505E-02  0.9465412E-06  0.0000000E+00  0.2622128E-04
  0.5287294E-02  0.0000000E+00 -0.5050505E-02  0.2266576E-05  0.0000000E+00  0.2463397E-04
 -0.5050505E-02  0.0000000E+00 -0.5050505E-02  0.1295548E-07  0.0000000E+00  0.2723151E-04
 -0.5050505E-02  0.0000000E+00 -0.5050505E-02  0.3881687E-07  0.0000000E+00  0.2724209E-04
 -0.5050505E-02  0.0000000E+00 -0.5050505E-02  0.6452810E-07  0.0000000E+00  0.2726320E-04
 -0.5050505E-02  0.0000000E+00 -0.5050505E-02  0.8998926E-07  0.0000000E+00  0.2729476E-04
 -0.5050505E-02  0.0000000E+00 -0.5050505E-02  0.1151014E-06  0.0000000E+00  0.2733665E-04
 -0.5050505E-02  0.0000000E+00 -0.5050505E-02  0.1397666E-06  0.0000000E+00  0.2738871E-04
 -0.5050504E-02  0.0000000E+00 -0.5050505E-02  0.1638880E-06  0.0000000E+00  0.2745074E-04
 -0.5050501E-02  0.0000000E+00 -0.5050505E-02  0.1873704E-06  0.0000000E+00  0.2752250E-04
 -0.5050495E-02  0.0000000E+00 -0.5050505E-02  0.2101206E-06  0.0000000E+00  0.2760370E-04
 -0.5050482E-02  0.0000000E+00 -0.5050505E-02  0.2320474E-06  0.0000000E+00  0.2769403E-04
 -0.5050449E-02  0.0000000E+00 -0.5050505E-02  0.2530620E-06  0.0000000E+00  0.2779313E-04
 -0.5050376E-02  0.0000000E+00 -0.5050505E-02  0.2730784E-06  0.0000000E+00  0.2790062E-04
 -0.5050299E-02  0.0000000E+00 -0.5050505E-02  0.2920137E-06  0.0000000E+00  0.2801607E-04
 -0.5050178E-02  0.0000000E+00 -0.5050505E-02  0.3097883E-06  0.0000000E+00  0.2813903E-04
 -0.5050018E-02  0.0000000E+00 -0.5050505E-02  0.3263264E-06  0.0000000E+00  0.2826900E-04
 -0.5049710E-02  0.0000000E+00 -0.5050505E-02  0.3415561E-06  0.0000000E+00  0.2840547E-04
 -0.5049253E-02  0.0000000E+00 -0.5050505E-02  0.3554098E-06  0.0000000E+00  0.2854789E-04
 -0.5048636E-02  0.0000000E+00 -0.5050505E-02  0.3678246E-06  0.0000000E+00  0.2869568E-04
 -0.5047442E-02  0.0000000E+00 -0.5050505E-02  0.3787424E-06  0.0000000E+00  0.2884824E-04
 -0.5045727E-02  0.0000000E+00 -0.5050505E-02  0.3881105E-06  0.0000000E+00  0.2900496E-04
 -0.5043261E-02  0.0000000E+00 -0.5050505E-02  0.3958817E-06  0.0000000E+00  0.2916519E-04
 -0.5038714E-02  0.0000000E+00 -0.5050505E-02  0.4020147E-06  0.0000000E+00  0.2932827E-04
 -0.5032318E-02  0.0000000E+00 -0.5050505E-02  0.4064742E-06  0.0000000E+00  0.2949352E-04
 -0.5022454E-02  0.0000000E+00 -0.5050505E-02  0.4092315E-06  0.0000000E+00  0.2966026E-04
 -0.5012589E-02  0.0000000E+00 -0.5050505E-02  0.4102642E-06  0.0000000E+00  0.2982778E-04
 -0.5002725E-02  0.0000000E+00 -0.5050505E-02  0.4095572E-06  0.0000000E+00  0.2999537E-04
 -0.4992860E-02  0.0000000E+00 -0.5050505E-02  0.4071021E-06  0.0000000E+00  0.3016233E-04
 -0.4976523E-02  0.0000000E+00 -0.5050505E-02  0.4028982E-06  0.0000000E+00  0.3032794E-04
 -0.4956794E-02  0.0000000E+00 -0.5050505E-02  0.3969517E-06  0.0000000E+00  0.3049149E-04
 -0.4937066E-02  0.0000000E+00 -0.5050505E-02  0.3892767E-06  0.0000000E+00  0.3065225E-04
 -0.4906239E-02  0.0000000E+00 -0.5050505E-02  0.3798949E-06  0.0000000E+00  0.3080954E-04
 -0.4866782E-02  0.0000000E+00 -0.5050505E-02  0.3688355E-06  0.0000000E+00  0.3096266E-04
 -0.4827325E-02  0.0000000E+00 -0.5050505E-02  0.3561355E-06  0.0000000E+00  0.3111094E-04
 -0.4769372E-02  0.0000000E+00 -0.5050505E-02  0.3418395E-06  0.0000000E+00  0.3125370E-04
 -0.4690458E-02  0.0000000E+00 -0.5050505E-02  0.3259996E-06  0.0000000E+00  0.3139030E-04
 -0.4611543E-02  0.0000000E+00 -0.5050505E-02  0.3086753E-06  0.0000000E+00  0.3152013E-04
 -0.4503035E-02  0.0000000E+00 -0.5050505E-02  0.2899334E-06  0.0000000E+00  0.3164260E-04
 -0.4345206E-02  0.0000000E+00 -0.5050505E-02  0.2698478E-06  0.0000000E+00  0.3175713E-04
 -0.4187378E-02  0.0000000E+00 -0.5050505E-02  0.2484987E-06  0.0000000E+00  0.3186319E-04
 -0.3985156E-02  0.0000000E+00 -0.5050505E-02  0.2259733E-06  0.0000000E+00  0.3196029E-04
 -0.3669499E-02  0.0000000E+00 -0.5050505E-02  0.2023643E-06  0.0000000E+00  0.3204795E-04
 -0.3353842E-02  0.0000000E+00 -0.5050505E-02  0.1777704E-06  0.0000000E+00  0.3212577E-04
 -0.2978990E-02  0.0000000E+00 -0.5050505E-02  0.1522951E-06  0.0000000E+00  0.3219334E-04
 -0.2347676E-02  0.0000000E+00 -0.5050505E-02  0.1260468E-06  0.0000000E+00  0.3225034E-04
 -0.1716362E-02  0.0000000E+00 -0.5050505E-02  0.9913797E-07  0.0000000E+00  0.3229648E-04
 -0.1025842E-02  0.0000000E+00 -0.5050505E-02  0.7168449E-07  0.0000000E+00  0.3233149E-04
  0.2367855E-03  0.0000000E+00 -0.5050505E-02  0.4380529E-07  0.0000000E+00  0.3235519E-04
  0.1499413E-02  0.0000000E+00 -0.5050505E-02  0.1562160E-07  0.0000000E+00  0.3236743E-04
  0.2762042E-02  0.0000000E+00 -0.5050505E-02 -0.1274370E-07  0.0000000E+00  0.3236810E-04
 -0.5050505E-02  0.0000000E+00 -0.5050505E-02 -0.4116668E-07  0.0000000E+00  0.3235716E-04
 -0.5050505E-02  0.0000000E+00 -0.5050505E-02 -0.6952307E-07  0.0000000E+00  0.3233461E-04
 -0.5050505E-02  0.0000000E+00 -0.5050505E-02 -0.9768893E-07  0.0000000E+00  0.3230050E-04
 -0.5050505E-02  0.0000000E+00 -0.5050505E-02 -0.1255413E-06  0.0000000E+00  0.3225494E-04
 -0.5050505E-02  0.0000000E+00 -0.5050505E-02 -0.1529588E-06  0.0000000E+00  0.3219807E-04
 -0.5050505E-02  0.0000000E+00 -0.5050505E-02 -0.1798223E-06  0.0000000E+00  0.3213010E-04
 -0.5050505E-02  0.0000000E+00 -0.5050505E-02 -0.2060157E-06  0.0000000E+00  0.3205129E-04
 -0.5050504E-02  0.0000000E+00 -0.5050505E-02 -0.2314262E-06  0.0000000E+00  0.3196192E-04
 -0.5050501E-02  0.0000000E+00 -0.5050505E-02 -0.2559450E-06  0.0000000E+00  0.3186235E-04
 -0.5050495E-02  0.0000000E+00 -0.5050505E-02 -0.2794679E-06  0.0000000E+00  0.3175295E-04
 -0.5050482E-02  0.0000000E+00 -0.5050505E-02 -0.3018958E-06  0.0000000E+00  0.3163416E-04
 -0.5050449E-02  0.0000000E+00 -0.5050505E-02 -0.3231350E-06  0.0000000E+00  0.3150645E-04
 -0.5050376E-02  0.0000000E+00 -0.5050505E-02 -0.3430976E-06  0.0000000E+00  0.3137031E-04
 -0.5050299E-02  0.0000000E+00 -0.5050505E-02 -0.3617021E-06  0.0000000E+00  0.3122630E-04
 -0.5050178E-02  0.0000000E+00 -0.5050505E-02 -0.3788734E-06  0.0000000E+00  0.3107497E-04
 -0.5050018E-02  0.0000000E+00 -0.5050505E-02 -0.3945431E-06  0.0000000E+00  0.3091693E-04
 -0.5049710E-02  0.0000000E+00 -0.5050505E-02 -0.4086500E-06  0.0000000E+00  0.3075282E-04
 -0.5049253E-02  0.0000000E+00 -0.5050505E-02 -0.4211399E-06  0.0000000E+00  0.3058327E-04
 -0.5048636E-02  0.0000000E+00 -0.5050505E-02 -0.4319658E-06  0.0000000E+00  0.3040896E-04
 -0.5047442E-02  0.0000000E+00 -0.5050505E-02 -0.4410881E-06  0.0000000E+00  0.3023058E-04
 -0.5045727E-02  0.0000000E+00 -0.5050505E-02 -0.4484742E-06  0.0000000E+00  0.3004882E-04
 -0.5043261E-02  0.0000000E+00 -0.5050505E-02 -0.4540990E-06  0.0000000E+00  0.2986442E-04
 -0.5038714E-02  0.0000000E+00 -0.5050505E-02 -0.4579442E-06  0.0000000E+00  0.2967808E-04
 -0.5032318E-02  0.0000000E+00 -0.5050505E-02 -0.4599985E-06  0.0000000E+00  0.2949055E-04
 -0.5022454E-02  0.0000000E+00 -0.5050505E-02 -0.4602570E-06  0.0000000E+00  0.2930254E-04
 -0.5012589E-02  0.0000000E+00 -0.5050505E-02 -0.4587213E-06  0.0000000E+00  0.2911480E-04
 -0.5002725E-02  0.0000000E+00 -0.5050505E-02 -0.4553986E-06  0.0000000E+00  0.2892805E-04
 -0.4992860E-02  0.0000000E+00 -0.5050505E-02 -0.4503012E-06  0.0000000E+00  0.2874302E-04
 -0.4976523E-02  0.0000000E+00 -0.5050505E-02 -0.4434462E-06  0.0000000E+00  0.2856043E-04
 -0.4956794E-02  0.0000000E+00 -0.5050505E-02 -0.4348540E-06  0.0000000E+00  0.2838098E-04
 -0.4937066E-02  0.0000000E+00 -0.5050505E-02 -0.4245472E-06  0.0000000E+00  0.2820539E-04
 -0.4906239E-02  0.0000000E+00 -0.5050505E-02 -0.4125491E-06  0.0000000E+00  0.2803434E-04
 -0.4866782E-02  0.0000000E+00 -0.5050505E-02 -0.3988809E-06  0.0000000E+00  0.2786850E-04
 -0.4827325E-02  0.0000000E+00 -0.5050505E-02 -0.3835590E-06  0.0000000E+00  0.2770855E-04
 -0.4769372E-02  0.0000000E+00 -0.5050505E-02 -0.3665892E-06  0.0000000E+00  0.2755514E-04
 -0.4690458E-02  0.0000000E+00 -0.5050505E-02 -0.3479598E-06  0.0000000E+00  0.2740892E-04
 -0.4611543E-02  0.0000000E+00 -0.5050505E-02 -0.3276298E-06  0.0000000E+00  0.2727052E-04
 -0.4503035E-02  0.0000000E+00 -0.5050505E-02 -0.3055107E-06  0.0000000E+00  0.2714061E-04
 -0.4345206E-02  0.0000000E+00 -0.5050505E-02 -0.2814360E-06  0.0000000E+00  0.2701983E-04
 -0.4187378E-02  0.0000000E+00 -0.5050505E-02 -0.2551112E-06  0.0000000E+00  0.2690886E-04
 -0.3985156E-02  0.0000000E+00 -0.5050505E-02 -0.2260257E-06  0.0000000E+00  0.2680838E-04
 -0.3669499E-02  0.0000000E+00 -0.5050505E-02 -0.1932986E-06  0.0000000E+00  0.2671909E-04
 -0.3353842E-02  0.0000000E+00 -0.5050505E-02 -0.1553981E-06  0.0000000E+00  0.2664158E-04
 -0.2978990E-02  0.0000000E+00 -0.5050505E-02 -0.1096315E-06  0.0000000E+00  0.2657602E-04
 -0.2347676E-02  0.0000000E+00 -0.5050505E-02 -0.5122999E-07  0.0000000E+00  0.2652126E-04
 -0.1716362E-02  0.0000000E+00 -0.5050505E-02  0.2815546E-07  0.0000000E+00  0.2647217E-04
 -0.1025842E-02  0.0000000E+00 -0.5050505E-02  0.1422060E-06  0.0000000E+00  0.2641267E-04
  0.2367855E-03  0.0000000E+00 -0.5050505E-02  0.3080977E-06  0.0000000E+00  0.2629944E-04
  0.1499413E-02  0.0000000E+00 -0.5050505E-02  0.5196033E-06  0.0000000E+00  0.2603650E-04
  0.5287294E-02  0.0000000E+00 -0.5050505E-02  0.5918912E-06  0.0000000E+00  0.2552683E-04
 -0.5050505E-02  0.0000000E+00 -0.5050505E-02  0.1818099E-07  0.0000000E+00  0.2732192E-04
 -0.5050505E-02  0.0000000E+00 -0.5050505E-02  0.5447332E-07  0.0000000E+00  0.2733266E-04
 -0.5050505E-02  0.0000000E+00 -0.5050505E-02  0.9055513E-07  0.0000000E+00  0.2735408E-04
 -0.5050505E-02  0.0000000E+00 -0.5050505E-02  0.1262864E-06  0.0000000E+00  0.2738612E-04
 -0.5050505E-02  0.0000000E+00 -0.5050505E-02  0.1615284E-06  0.0000000E+00  0.2742865E-04
 -0.5050505E-02  0.0000000E+00 -0.5050505E-02  0.1961438E-06  0.0000000E+00  0.2748150E-04
 -0.5050504E-02  0.0000000E+00 -0.5050505E-02  0.2299968E-06  0.0000000E+00  0.2754447E-04
 -0.5050501E-02  0.0000000E+00 -0.5050505E-02  0.2629541E-06  0.0000000E+00  0.2761731E-04
 -0.5050495E-02  0.0000000E+00 -0.5050505E-02  0.2948847E-06  0.0000000E+00  0.2769975E-04
 -0.5050482E-02  0.0000000E+00 -0.5050505E-02  0.3256608E-06  0.0000000E+00  0.2779146E-04
 -0.5050449E-02  0.0000000E+00 -0.5050505E-02  0.3551579E-06  0.0000000E+00  0.2789208E-04
 -0.5050376E-02  0.0000000E+00 -0.5050505E-02  0.3832553E-06  0.0000000E+00  0.2800121E-04
 -0.5050299E-02  0.0000000E+00 -0.5050505E-02  0.4098366E-06  0.0000000E+00  0.2811844E-04
 -0.5050178E-02  0.0000000E+00 -0.5050505E-02  0.4347903E-06  0.0000000E+00  0.2824329E-04
 -0.5050018E-02  0.0000000E+00 -0.5050505E-02  0.4580098E-06  0.0000000E+00  0.2837527E-04
 -0.5049710E-02  0.0000000E+00 -0.5050505E-02  0.4793941E-06  0.0000000E+00  0.2851386E-04
 -0.5049253E-02  0.0000000E+00 -0.5050505E-02  0.4988484E-06  0.0000000E+00  0.2865849E-04
 -0.5048636E-02  0.0000000E+00 -0.5050505E-02  0.5162843E-06  0.0000000E+00  0.2880859E-04
 -0.5047442E-02  0.0000000E+00 -0.5050505E-02  0.5316201E-06  0.0000000E+00  0.2896355E-04
 -0.5045727E-02  0.0000000E+00 -0.5050505E-02  0.5447818E-06  0.0000000E+00  0.2912274E-04
 -0.5043261E-02  0.0000000E+00 -0.5050505E-02  0.5557030E-06  0.0000000E+00  0.2928551E-04
 -0.5038714E-02  0.0000000E+00 -0.5050505E-02  0.5643255E-06  0.0000000E+00  0.2945118E-04
 -0.5032318E-02  0.0000000E+00 -0.5050505E-02  0.5705996E-06  0.0000000E+00  0.2961907E-04
 -0.5022454E-02  0.0000000E+00 -0.5050505E-02  0.5744847E-06  0.0000000E+00  0.2978848E-04
 -0.5012589E-02  0.0000000E+00 -0.5050505E-02  0.5759494E-06  0.0000000E+00  0.2995870E-04
 -0.5002725E-02  0.0000000E+00 -0.5050505E-02  0.5749722E-06  0.0000000E+00  0.3012901E-04
 -0.4992860E-02  0.0000000E+00 -0.5050505E-02  0.5715411E-06  0.0000000E+00  0.3029869E-04
 -0.4976523E-02  0.0000000E+00 -0.5050505E-02  0.5656548E-06  0.0000000E+00  0.3046701E-04
 -0.4956794E-02  0.0000000E+00 -0.5050505E-02  0.5573221E-06  0.0000000E+00  0.3063324E-04
 -0.4937066E-02  0.0000000E+00 -0.5050505E-02  0.5465624E-06  0.0000000E+00  0.3079667E-04