title = "dataset feddes"
variables = "x", "y", "z", "vx", "vy", "vz"
zone t = "velocities, solution time =  2.700E+01 days        " i =   99, j =   99, k =    1,  f=point
 -0.5050505E-02  0.0000000E+00 -0.5050505E-02  0.4070647E-12  0.0000000E+00  0.8205813E-08
 -0.5050505E-02  0.0000000E+00 -0.5050505E-02  0.1717670E-11  0.0000000E+00  0.8207950E-08
 -0.5050505E-02  0.0000000E+00 -0.5050505E-02  0.3223399E-11  0.0000000E+00  0.8212919E-08
 -0.5050505E-02  0.0000000E+00 -0.5050505E-02  0.4651353E-11  0.0000000E+00  0.8220838E-08
 -0.5050505E-02  0.0000000E+00 -0.5050505E-02  0.6016326E-11  0.0000000E+00  0.8231566E-08
 -0.5050505E-02  0.0000000E+00 -0.5050505E-02  0.7334189E-11  0.0000000E+00  0.8244992E-08
 -0.5050504E-02  0.0000000E+00 -0.5050505E-02  0.8612637E-11  0.0000000E+00  0.8261029E-08
 -0.5050501E-02  0.0000000E+00 -0.5050505E-02  0.9851465E-11  0.0000000E+00  0.8279598E-08
 -0.5050495E-02  0.0000000E+00 -0.5050505E-02  0.1104902E-10  0.0000000E+00  0.8300617E-08
 -0.5050482E-02  0.0000000E+00 -0.5050505E-02  0.1220206E-10  0.0000000E+00  0.8323999E-08
 -0.5050449E-02  0.0000000E+00 -0.5050505E-02  0.1330583E-10  0.0000000E+00  0.8349652E-08
 -0.5050376E-02  0.0000000E+00 -0.5050505E-02  0.1435644E-10  0.0000000E+00  0.8377471E-08
 -0.5050299E-02  0.0000000E+00 -0.5050505E-02  0.1534992E-10  0.0000000E+00  0.8407345E-08
 -0.5050178E-02  0.0000000E+00 -0.5050505E-02  0.1628201E-10  0.0000000E+00  0.8439156E-08
 -0.5050018E-02  0.0000000E+00 -0.5050505E-02  0.1714898E-10  0.0000000E+00  0.8472776E-08
 -0.5049710E-02  0.0000000E+00 -0.5050505E-02  0.1794731E-10  0.0000000E+00  0.8508071E-08
 -0.5049253E-02  0.0000000E+00 -0.5050505E-02  0.1867365E-10  0.0000000E+00  0.8544900E-08
 -0.5048636E-02  0.0000000E+00 -0.5050505E-02  0.1932488E-10  0.0000000E+00  0.8583113E-08
 -0.5047442E-02  0.0000000E+00 -0.5050505E-02  0.1989822E-10  0.0000000E+00  0.8622558E-08
 -0.5045727E-02  0.0000000E+00 -0.5050505E-02  0.2039116E-10  0.0000000E+00  0.8663076E-08
 -0.5043261E-02  0.0000000E+00 -0.5050505E-02  0.2080147E-10  0.0000000E+00  0.8704502E-08
 -0.5038714E-02  0.0000000E+00 -0.5050505E-02  0.2112726E-10  0.0000000E+00  0.8746668E-08
 -0.5032318E-02  0.0000000E+00 -0.5050505E-02  0.2136698E-10  0.0000000E+00  0.8789403E-08
 -0.5022454E-02  0.0000000E+00 -0.5050505E-02  0.2151938E-10  0.0000000E+00  0.8832532E-08
 -0.5012589E-02  0.0000000E+00 -0.5050505E-02  0.2158360E-10  0.0000000E+00  0.8875879E-08
 -0.5002725E-02  0.0000000E+00 -0.5050505E-02  0.2155906E-10  0.0000000E+00  0.8919266E-08
 -0.4992860E-02  0.0000000E+00 -0.5050505E-02  0.2144562E-10  0.0000000E+00  0.8962514E-08
 -0.4976523E-02  0.0000000E+00 -0.5050505E-02  0.2124344E-10  0.0000000E+00  0.9005445E-08
 -0.4956794E-02  0.0000000E+00 -0.5050505E-02  0.2095313E-10  0.0000000E+00  0.9047880E-08
 -0.4937066E-02  0.0000000E+00 -0.5050505E-02  0.2057556E-10  0.0000000E+00  0.9089644E-08
 -0.4906239E-02  0.0000000E+00 -0.5050505E-02  0.2011203E-10  0.0000000E+00  0.9130562E-08
 -0.4866782E-02  0.0000000E+00 -0.5050505E-02  0.1956420E-10  0.0000000E+00  0.9170463E-08
 -0.4827325E-02  0.0000000E+00 -0.5050505E-02  0.1893410E-10  0.0000000E+00  0.9209179E-08
 -0.4769372E-02  0.0000000E+00 -0.5050505E-02  0.1822407E-10  0.0000000E+00  0.9246547E-08
 -0.4690458E-02  0.0000000E+00 -0.5050505E-02  0.1743685E-10  0.0000000E+00  0.9282410E-08
 -0.4611543E-02  0.0000000E+00 -0.5050505E-02  0.1657548E-10  0.0000000E+00  0.9316615E-08
 -0.4503035E-02  0.0000000E+00 -0.5050505E-02  0.1564334E-10  0.0000000E+00  0.9349016E-08
 -0.4345206E-02  0.0000000E+00 -0.5050505E-02  0.1464401E-10  0.0000000E+00  0.9379475E-08
 -0.4187378E-02  0.0000000E+00 -0.5050505E-02  0.1358142E-10  0.0000000E+00  0.9407860E-08
 -0.3985156E-02  0.0000000E+00 -0.5050505E-02  0.1245964E-10  0.0000000E+00  0.9434049E-08
 -0.3669499E-02  0.0000000E+00 -0.5050505E-02  0.1128279E-10  0.0000000E+00  0.9457926E-08
 -0.3353842E-02  0.0000000E+00 -0.5050505E-02  0.1005496E-10  0.0000000E+00  0.9479384E-08
 -0.2978990E-02  0.0000000E+00 -0.5050505E-02  0.8780063E-11  0.0000000E+00  0.9498326E-08
 -0.2347676E-02  0.0000000E+00 -0.5050505E-02  0.7461779E-11  0.0000000E+00  0.9514660E-08
 -0.1716362E-02  0.0000000E+00 -0.5050505E-02  0.6103638E-11  0.0000000E+00  0.9528302E-08
 -0.1025842E-02  0.0000000E+00 -0.5050505E-02  0.4709806E-11  0.0000000E+00  0.9539177E-08
  0.2367855E-03  0.0000000E+00 -0.5050505E-02  0.3286981E-11  0.0000000E+00  0.9547219E-08
  0.1499413E-02  0.0000000E+00 -0.5050505E-02  0.1846468E-11  0.0000000E+00  0.9552381E-08
  0.2762042E-02  0.0000000E+00 -0.5050505E-02  0.4029333E-12  0.0000000E+00  0.9554643E-08
 -0.5050505E-02  0.0000000E+00 -0.5050505E-02 -0.8485293E-12  0.0000000E+00  0.9554195E-08
 -0.5050505E-02  0.0000000E+00 -0.5050505E-02 -0.2156241E-11  0.0000000E+00  0.9551173E-08
 -0.5050505E-02  0.0000000E+00 -0.5050505E-02 -0.3654374E-11  0.0000000E+00  0.9545330E-08
 -0.5050505E-02  0.0000000E+00 -0.5050505E-02 -0.5123222E-11  0.0000000E+00  0.9536503E-08
 -0.5050505E-02  0.0000000E+00 -0.5050505E-02 -0.6540949E-11  0.0000000E+00  0.9524772E-08
 -0.5050505E-02  0.0000000E+00 -0.5050505E-02 -0.7914476E-11  0.0000000E+00  0.9510235E-08
 -0.5050505E-02  0.0000000E+00 -0.5050505E-02 -0.9248160E-11  0.0000000E+00  0.9492975E-08
 -0.5050504E-02  0.0000000E+00 -0.5050505E-02 -0.1054175E-10  0.0000000E+00  0.9473073E-08
 -0.5050501E-02  0.0000000E+00 -0.5050505E-02 -0.1179226E-10  0.0000000E+00  0.9450613E-08
 -0.5050495E-02  0.0000000E+00 -0.5050505E-02 -0.1299538E-10  0.0000000E+00  0.9425685E-08
 -0.5050482E-02  0.0000000E+00 -0.5050505E-02 -0.1414663E-10  0.0000000E+00  0.9398389E-08
 -0.5050449E-02  0.0000000E+00 -0.5050505E-02 -0.1524137E-10  0.0000000E+00  0.9368835E-08
 -0.5050376E-02  0.0000000E+00 -0.5050505E-02 -0.1627514E-10  0.0000000E+00  0.9337140E-08
 -0.5050299E-02  0.0000000E+00 -0.5050505E-02 -0.1724372E-10  0.0000000E+00  0.9303431E-08
 -0.5050178E-02  0.0000000E+00 -0.5050505E-02 -0.1814319E-10  0.0000000E+00  0.9267844E-08
 -0.5050018E-02  0.0000000E+00 -0.5050505E-02 -0.1896990E-10  0.0000000E+00  0.9230521E-08
 -0.5049710E-02  0.0000000E+00 -0.5050505E-02 -0.1972054E-10  0.0000000E+00  0.9191611E-08
 -0.5049253E-02  0.0000000E+00 -0.5050505E-02 -0.2039205E-10  0.0000000E+00  0.9151272E-08
 -0.5048636E-02  0.0000000E+00 -0.5050505E-02 -0.2098174E-10  0.0000000E+00  0.9109664E-08
 -0.5047442E-02  0.0000000E+00 -0.5050505E-02 -0.2148733E-10  0.0000000E+00  0.9066954E-08
 -0.5045727E-02  0.0000000E+00 -0.5050505E-02 -0.2190674E-10  0.0000000E+00  0.9023314E-08
 -0.5043261E-02  0.0000000E+00 -0.5050505E-02 -0.2223835E-10  0.0000000E+00  0.8978919E-08
 -0.5038714E-02  0.0000000E+00 -0.5050505E-02 -0.2248081E-10  0.0000000E+00  0.8933947E-08
 -0.5032318E-02  0.0000000E+00 -0.5050505E-02 -0.2263307E-10  0.0000000E+00  0.8888578E-08
 -0.5022454E-02  0.0000000E+00 -0.5050505E-02 -0.2269452E-10  0.0000000E+00  0.8842994E-08
 -0.5012589E-02  0.0000000E+00 -0.5050505E-02 -0.2266469E-10  0.0000000E+00  0.8797378E-08
 -0.5002725E-02  0.0000000E+00 -0.5050505E-02 -0.2254357E-10  0.0000000E+00  0.8751913E-08
 -0.4992860E-02  0.0000000E+00 -0.5050505E-02 -0.2233123E-10  0.0000000E+00  0.8706785E-08
 -0.4976523E-02  0.0000000E+00 -0.5050505E-02 -0.2202804E-10  0.0000000E+00  0.8662174E-08
 -0.4956794E-02  0.0000000E+00 -0.5050505E-02 -0.2163452E-10  0.0000000E+00  0.8618264E-08
 -0.4937066E-02  0.0000000E+00 -0.5050505E-02 -0.2115120E-10  0.0000000E+00  0.8575236E-08
 -0.4906239E-02  0.0000000E+00 -0.5050505E-02 -0.2057865E-10  0.0000000E+00  0.8533270E-08
 -0.4866782E-02  0.0000000E+00 -0.5050505E-02 -0.1991709E-10  0.0000000E+00  0.8492545E-08
 -0.4827325E-02  0.0000000E+00 -0.5050505E-02 -0.1916641E-10  0.0000000E+00  0.8453241E-08
 -0.4769372E-02  0.0000000E+00 -0.5050505E-02 -0.1832555E-10  0.0000000E+00  0.8415536E-08
 -0.4690458E-02  0.0000000E+00 -0.5050505E-02 -0.1739195E-10  0.0000000E+00  0.8379617E-08
 -0.4611543E-02  0.0000000E+00 -0.5050505E-02 -0.1636055E-10  0.0000000E+00  0.8345673E-08
 -0.4503035E-02  0.0000000E+00 -0.5050505E-02 -0.1522209E-10  0.0000000E+00  0.8313912E-08
 -0.4345206E-02  0.0000000E+00 -0.5050505E-02 -0.1396000E-10  0.0000000E+00  0.8284564E-08
 -0.4187378E-02  0.0000000E+00 -0.5050505E-02 -0.1254520E-10  0.0000000E+00  0.8257909E-08
 -0.3985156E-02  0.0000000E+00 -0.5050505E-02 -0.1092601E-10  0.0000000E+00  0.8234305E-08
 -0.3669499E-02  0.0000000E+00 -0.5050505E-02 -0.9008792E-11  0.0000000E+00  0.8214257E-08
 -0.3353842E-02  0.0000000E+00 -0.5050505E-02 -0.6615410E-11  0.0000000E+00  0.8198545E-08
 -0.2978990E-02  0.0000000E+00 -0.5050505E-02 -0.3379834E-11  0.0000000E+00  0.8188493E-08
 -0.2347676E-02  0.0000000E+00 -0.5050505E-02  0.1369096E-11  0.0000000E+00  0.8186471E-08
 -0.1716362E-02  0.0000000E+00 -0.5050505E-02  0.9690487E-11  0.0000000E+00  0.8197593E-08
 -0.1025842E-02  0.0000000E+00 -0.5050505E-02  0.2663245E-10  0.0000000E+00  0.8234122E-08
  0.2367855E-03  0.0000000E+00 -0.5050505E-02  0.6774313E-10  0.0000000E+00  0.8329031E-08
  0.1499413E-02  0.0000000E+00 -0.5050505E-02  0.1837305E-09  0.0000000E+00  0.8581929E-08
  0.5287294E-02  0.0000000E+00 -0.5050505E-02  0.3030083E-08  0.0000000E+00  0.6856782E-08
 -0.5050505E-02  0.0000000E+00 -0.5050505E-02  0.1326539E-11  0.0000000E+00  0.8216337E-08
 -0.5050505E-02  0.0000000E+00 -0.5050505E-02  0.5236007E-11  0.0000000E+00  0.8218675E-08
 -0.5050505E-02  0.0000000E+00 -0.5050505E-02  0.9700762E-11  0.0000000E+00  0.8223786E-08
 -0.5050505E-02  0.0000000E+00 -0.5050505E-02  0.1395956E-10  0.0000000E+00  0.8231786E-08
 -0.5050505E-02  0.0000000E+00 -0.5050505E-02  0.1804745E-10  0.0000000E+00  0.8242578E-08
 -0.5050505E-02  0.0000000E+00 -0.5050505E-02  0.2199912E-10  0.0000000E+00  0.8256074E-08
 -0.5050504E-02  0.0000000E+00 -0.5050505E-02  0.2583353E-10  0.0000000E+00  0.8272194E-08
 -0.5050501E-02  0.0000000E+00 -0.5050505E-02  0.2954987E-10  0.0000000E+00  0.8290857E-08
 -0.5050495E-02  0.0000000E+00 -0.5050505E-02  0.3314197E-10  0.0000000E+00  0.8311985E-08
 -0.5050482E-02  0.0000000E+00 -0.5050505E-02  0.3660034E-10  0.0000000E+00  0.8335487E-08
 -0.5050449E-02  0.0000000E+00 -0.5050505E-02  0.3991127E-10  0.0000000E+00  0.8361271E-08
 -0.5050376E-02  0.0000000E+00 -0.5050505E-02  0.4306267E-10  0.0000000E+00  0.8389233E-08
 -0.5050299E-02  0.0000000E+00 -0.5050505E-02  0.4604260E-10  0.0000000E+00  0.8419262E-08
 -0.5050178E-02  0.0000000E+00 -0.5050505E-02  0.4883855E-10  0.0000000E+00  0.8451236E-08
 -0.5050018E-02  0.0000000E+00 -0.5050505E-02  0.5143920E-10  0.0000000E+00  0.8485030E-08
 -0.5049710E-02  0.0000000E+00 -0.5050505E-02  0.5383399E-10  0.0000000E+00  0.8520507E-08
 -0.5049253E-02  0.0000000E+00 -0.5050505E-02  0.5601283E-10  0.0000000E+00  0.8557526E-08
 -0.5048636E-02  0.0000000E+00 -0.5050505E-02  0.5796643E-10  0.0000000E+00  0.8595937E-08
 -0.5047442E-02  0.0000000E+00 -0.5050505E-02  0.5968641E-10  0.0000000E+00  0.8635587E-08
 -0.5045727E-02  0.0000000E+00 -0.5050505E-02  0.6116523E-10  0.0000000E+00  0.8676315E-08
 -0.5043261E-02  0.0000000E+00 -0.5050505E-02  0.6239622E-10  0.0000000E+00  0.8717957E-08
 -0.5038714E-02  0.0000000E+00 -0.5050505E-02  0.6337374E-10  0.0000000E+00  0.8760343E-08
 -0.5032318E-02  0.0000000E+00 -0.5050505E-02  0.6409307E-10  0.0000000E+00  0.8803301E-08
 -0.5022454E-02  0.0000000E+00 -0.5050505E-02  0.6455050E-10  0.0000000E+00  0.8846657E-08
 -0.5012589E-02  0.0000000E+00 -0.5050505E-02  0.6474336E-10  0.0000000E+00  0.8890232E-08
 -0.5002725E-02  0.0000000E+00 -0.5050505E-02  0.6467006E-10  0.0000000E+00  0.8933847E-08
 -0.4992860E-02  0.0000000E+00 -0.5050505E-02  0.6433006E-10  0.0000000E+00  0.8977324E-08
 -0.4976523E-02  0.0000000E+00 -0.5050505E-02  0.6372391E-10  0.0000000E+00  0.9020482E-08
 -0.4956794E-02  0.0000000E+00 -0.5050505E-02  0.6285333E-10  0.0000000E+00  0.9063143E-08
 -0.4937066E-02  0.0000000E+00 -0.5050505E-02  0.6172100E-10  0.0000000E+00  0.9105129E-08
 -0.4906239E-02  0.0000000E+00 -0.5050505E-02  0.6033083E-10  0.0000000E+00  0.9146266E-08
 -0.4866782E-02  0.0000000E+00 -0.5050505E-02  0.5868780E-10  0.0000000E+00  0.9186380E-08
 -0.4827325E-02  0.0000000E+00 -0.5050505E-02  0.5679791E-10  0.0000000E+00  0.9225304E-08
 -0.4769372E-02  0.0000000E+00 -0.5050505E-02  0.5466830E-10  0.0000000E+00  0.9262874E-08
 -0.4690458E-02  0.0000000E+00 -0.5050505E-02  0.5230711E-10  0.0000000E+00  0.9298931E-08
 -0.4611543E-02  0.0000000E+00 -0.5050505E-02  0.4972351E-10  0.0000000E+00  0.9333321E-08
 -0.4503035E-02  0.0000000E+00 -0.5050505E-02  0.4692752E-10  0.0000000E+00  0.9365899E-08
 -0.4345206E-02  0.0000000E+00 -0.5050505E-02  0.4393008E-10  0.0000000E+00  0.9396524E-08
 -0.4187378E-02  0.0000000E+00 -0.5050505E-02  0.4074294E-10  0.0000000E+00  0.9425065E-08
 -0.3985156E-02  0.0000000E+00 -0.5050505E-02  0.3737824E-10  0.0000000E+00  0.9451398E-08
 -0.3669499E-02  0.0000000E+00 -0.5050505E-02  0.3384846E-10  0.0000000E+00  0.9475408E-08
 -0.3353842E-02  0.0000000E+00 -0.5050505E-02  0.3016585E-10  0.0000000E+00  0.9496988E-08
 -0.2978990E-02  0.0000000E+00 -0.5050505E-02  0.2634204E-10  0.0000000E+00  0.9516039E-08
 -0.2347676E-02  0.0000000E+00 -0.5050505E-02  0.2238760E-10  0.0000000E+00  0.9532469E-08
 -0.1716362E-02  0.0000000E+00 -0.5050505E-02  0.1831222E-10  0.0000000E+00  0.9546191E-08
 -0.1025842E-02  0.0000000E+00 -0.5050505E-02  0.1412734E-10  0.0000000E+00  0.9557126E-08
  0.2367855E-03  0.0000000E+00 -0.5050505E-02  0.9853289E-11  0.0000000E+00  0.9565203E-08
  0.1499413E-02  0.0000000E+00 -0.5050505E-02  0.5533430E-11  0.0000000E+00  0.9570381E-08
  0.2762042E-02  0.0000000E+00 -0.5050505E-02  0.1250646E-11  0.0000000E+00  0.9572692E-08
 -0.5050505E-02  0.0000000E+00 -0.5050505E-02 -0.2535635E-11  0.0000000E+00  0.9572293E-08
 -0.5050505E-02  0.0000000E+00 -0.5050505E-02 -0.6500907E-11  0.0000000E+00  0.9569232E-08
 -0.5050505E-02  0.0000000E+00 -0.5050505E-02 -0.1096839E-10  0.0000000E+00  0.9563318E-08
 -0.5050505E-02  0.0000000E+00 -0.5050505E-02 -0.1536313E-10  0.0000000E+00  0.9554443E-08
 -0.5050505E-02  0.0000000E+00 -0.5050505E-02 -0.1961446E-10  0.0000000E+00  0.9542662E-08
 -0.5050505E-02  0.0000000E+00 -0.5050505E-02 -0.2373584E-10  0.0000000E+00  0.9528059E-08
 -0.5050505E-02  0.0000000E+00 -0.5050505E-02 -0.2773776E-10  0.0000000E+00  0.9510717E-08
 -0.5050504E-02  0.0000000E+00 -0.5050505E-02 -0.3161892E-10  0.0000000E+00  0.9490716E-08
 -0.5050501E-02  0.0000000E+00 -0.5050505E-02 -0.3537038E-10  0.0000000E+00  0.9468143E-08
 -0.5050495E-02  0.0000000E+00 -0.5050505E-02 -0.3897964E-10  0.0000000E+00  0.9443088E-08
 -0.5050482E-02  0.0000000E+00 -0.5050505E-02 -0.4243306E-10  0.0000000E+00  0.9415653E-08
 -0.5050449E-02  0.0000000E+00 -0.5050505E-02 -0.4571691E-10  0.0000000E+00  0.9385947E-08
 -0.5050376E-02  0.0000000E+00 -0.5050505E-02 -0.4881786E-10  0.0000000E+00  0.9354089E-08
 -0.5050299E-02  0.0000000E+00 -0.5050505E-02 -0.5172324E-10  0.0000000E+00  0.9320207E-08
 -0.5050178E-02  0.0000000E+00 -0.5050505E-02 -0.5442130E-10  0.0000000E+00  0.9284436E-08
 -0.5050018E-02  0.0000000E+00 -0.5050505E-02 -0.5690112E-10  0.0000000E+00  0.9246921E-08
 -0.5049710E-02  0.0000000E+00 -0.5050505E-02 -0.5915266E-10  0.0000000E+00  0.9207810E-08
 -0.5049253E-02  0.0000000E+00 -0.5050505E-02 -0.6116689E-10  0.0000000E+00  0.9167263E-08
 -0.5048636E-02  0.0000000E+00 -0.5050505E-02 -0.6293572E-10  0.0000000E+00  0.9125440E-08
 -0.5047442E-02  0.0000000E+00 -0.5050505E-02 -0.6445223E-10  0.0000000E+00  0.9082511E-08
 -0.5045727E-02  0.0000000E+00 -0.5050505E-02 -0.6571029E-10  0.0000000E+00  0.9038646E-08
 -0.5043261E-02  0.0000000E+00 -0.5050505E-02 -0.6670497E-10  0.0000000E+00  0.8994022E-08
 -0.5038714E-02  0.0000000E+00 -0.5050505E-02 -0.6743222E-10  0.0000000E+00  0.8948818E-08
 -0.5032318E-02  0.0000000E+00 -0.5050505E-02 -0.6788909E-10  0.0000000E+00  0.8903215E-08
 -0.5022454E-02  0.0000000E+00 -0.5050505E-02 -0.6807348E-10  0.0000000E+00  0.8857395E-08
 -0.5012589E-02  0.0000000E+00 -0.5050505E-02 -0.6798432E-10  0.0000000E+00  0.8811543E-08
 -0.5002725E-02  0.0000000E+00 -0.5050505E-02 -0.6762128E-10  0.0000000E+00  0.8765844E-08
 -0.4992860E-02  0.0000000E+00 -0.5050505E-02 -0.6698486E-10  0.0000000E+00  0.8720480E-08
 -0.4976523E-02  0.0000000E+00 -0.5050505E-02 -0.6607616E-10  0.0000000E+00  0.8675636E-08
 -0.4956794E-02  0.0000000E+00 -0.5050505E-02 -0.6489673E-10  0.0000000E+00  0.8631495E-08
 -0.4937066E-02  0.0000000E+00 -0.5050505E-02 -0.6344844E-10  0.0000000E+00  0.8588238E-08
 -0.4906239E-02  0.0000000E+00 -0.5050505E-02 -0.6173294E-10  0.0000000E+00  0.8546045E-08
 -0.4866782E-02  0.0000000E+00 -0.5050505E-02 -0.5975142E-10  0.0000000E+00  0.8505094E-08
 -0.4827325E-02  0.0000000E+00 -0.5050505E-02 -0.5750369E-10  0.0000000E+00  0.8465564E-08
 -0.4769372E-02  0.0000000E+00 -0.5050505E-02 -0.5498732E-10  0.0000000E+00  0.8427634E-08
 -0.4690458E-02  0.0000000E+00 -0.5050505E-02 -0.5219559E-10  0.0000000E+00  0.8391482E-08
 -0.4611543E-02  0.0000000E+00 -0.5050505E-02 -0.4911508E-10  0.0000000E+00  0.8357294E-08
 -0.4503035E-02  0.0000000E+00 -0.5050505E-02 -0.4572083E-10  0.0000000E+00  0.8325266E-08
 -0.4345206E-02  0.0000000E+00 -0.5050505E-02 -0.4196853E-10  0.0000000E+00  0.8295611E-08
 -0.4187378E-02  0.0000000E+00 -0.5050505E-02 -0.3778055E-10  0.0000000E+00  0.8268571E-08
 -0.3985156E-02  0.0000000E+00 -0.5050505E-02 -0.3302148E-10  0.0000000E+00  0.8244444E-08
 -0.3669499E-02  0.0000000E+00 -0.5050505E-02 -0.2745272E-10  0.0000000E+00  0.8223610E-08
 -0.3353842E-02  0.0000000E+00 -0.5050505E-02 -0.2064602E-10  0.0000000E+00  0.8206576E-08
 -0.2978990E-02  0.0000000E+00 -0.5050505E-02 -0.1180571E-10  0.0000000E+00  0.8193988E-08
 -0.2347676E-02  0.0000000E+00 -0.5050505E-02  0.6697441E-12  0.0000000E+00  0.8186822E-08
 -0.1716362E-02  0.0000000E+00 -0.5050505E-02  0.2034362E-10  0.0000000E+00  0.8185773E-08
 -0.1025842E-02  0.0000000E+00 -0.5050505E-02  0.5593125E-10  0.0000000E+00  0.8189627E-08
  0.2367855E-03  0.0000000E+00 -0.5050505E-02  0.1285521E-09  0.0000000E+00  0.8185869E-08
  0.1499413E-02  0.0000000E+00 -0.5050505E-02  0.2931116E-09  0.0000000E+00  0.8105547E-08
  0.5287294E-02  0.0000000E+00 -0.5050505E-02  0.6999151E-09  0.0000000E+00  0.7615525E-08
 -0.5050505E-02  0.0000000E+00 -0.5050505E-02  0.2404468E-11  0.0000000E+00  0.8238185E-08
 -0.5050505E-02  0.0000000E+00 -0.5050505E-02  0.8904257E-11  0.0000000E+00  0.8240657E-08
 -0.5050505E-02  0.0000000E+00 -0.5050505E-02  0.1625172E-10  0.0000000E+00  0.8245907E-08
 -0.5050505E-02  0.0000000E+00 -0.5050505E-02  0.2330668E-10  0.0000000E+00  0.8254029E-08
 -0.5050505E-02  0.0000000E+00 -0.5050505E-02  0.3010979E-10  0.0000000E+00  0.8264947E-08
 -0.5050505E-02  0.0000000E+00 -0.5050505E-02  0.3669735E-10  0.0000000E+00  0.8278589E-08
 -0.5050504E-02  0.0000000E+00 -0.5050505E-02  0.4309163E-10  0.0000000E+00  0.8294876E-08
 -0.5050501E-02  0.0000000E+00 -0.5050505E-02  0.4929069E-10  0.0000000E+00  0.8313733E-08
 -0.5050495E-02  0.0000000E+00 -0.5050505E-02  0.5528238E-10  0.0000000E+00  0.8335077E-08
 -0.5050482E-02  0.0000000E+00 -0.5050505E-02  0.6105056E-10  0.0000000E+00  0.8358821E-08
 -0.5050449E-02  0.0000000E+00 -0.5050505E-02  0.6657342E-10  0.0000000E+00  0.8384870E-08
 -0.5050376E-02  0.0000000E+00 -0.5050505E-02  0.7183018E-10  0.0000000E+00  0.8413119E-08
 -0.5050299E-02  0.0000000E+00 -0.5050505E-02  0.7680087E-10  0.0000000E+00  0.8443455E-08
 -0.5050178E-02  0.0000000E+00 -0.5050505E-02  0.8146492E-10  0.0000000E+00  0.8475759E-08
 -0.5050018E-02  0.0000000E+00 -0.5050505E-02  0.8580336E-10  0.0000000E+00  0.8509900E-08
 -0.5049710E-02  0.0000000E+00 -0.5050505E-02  0.8979847E-10  0.0000000E+00  0.8545742E-08
 -0.5049253E-02  0.0000000E+00 -0.5050505E-02  0.9343344E-10  0.0000000E+00  0.8583143E-08
 -0.5048636E-02  0.0000000E+00 -0.5050505E-02  0.9669281E-10  0.0000000E+00  0.8621952E-08
 -0.5047442E-02  0.0000000E+00 -0.5050505E-02  0.9956256E-10  0.0000000E+00  0.8662012E-08
 -0.5045727E-02  0.0000000E+00 -0.5050505E-02  0.1020301E-09  0.0000000E+00  0.8703163E-08
 -0.5043261E-02  0.0000000E+00 -0.5050505E-02  0.1040843E-09  0.0000000E+00  0.8745237E-08
 -0.5038714E-02  0.0000000E+00 -0.5050505E-02  0.1057158E-09  0.0000000E+00  0.8788065E-08
 -0.5032318E-02  0.0000000E+00 -0.5050505E-02  0.1069165E-09  0.0000000E+00  0.8831473E-08
 -0.5022454E-02  0.0000000E+00 -0.5050505E-02  0.1076805E-09  0.0000000E+00  0.8875282E-08
 -0.5012589E-02  0.0000000E+00 -0.5050505E-02  0.1080031E-09  0.0000000E+00  0.8919314E-08
 -0.5002725E-02  0.0000000E+00 -0.5050505E-02  0.1078818E-09  0.0000000E+00  0.8963388E-08
 -0.4992860E-02  0.0000000E+00 -0.5050505E-02  0.1073156E-09  0.0000000E+00  0.9007324E-08
 -0.4976523E-02  0.0000000E+00 -0.5050505E-02  0.1063054E-09  0.0000000E+00  0.9050938E-08
 -0.4956794E-02  0.0000000E+00 -0.5050505E-02  0.1048540E-09  0.0000000E+00  0.9094051E-08
 -0.4937066E-02  0.0000000E+00 -0.5050505E-02  0.1029660E-09  0.0000000E+00  0.9136484E-08
 -0.4906239E-02  0.0000000E+00 -0.5050505E-02  0.1006478E-09  0.0000000E+00  0.9178058E-08
 -0.4866782E-02  0.0000000E+00 -0.5050505E-02  0.9790775E-10  0.0000000E+00  0.9218601E-08
 -0.4827325E-02  0.0000000E+00 -0.5050505E-02  0.9475585E-10  0.0000000E+00  0.9257943E-08
 -0.4769372E-02  0.0000000E+00 -0.5050505E-02  0.9120400E-10  0.0000000E+00  0.9295916E-08
 -0.4690458E-02  0.0000000E+00 -0.5050505E-02  0.8726575E-10  0.0000000E+00  0.9332361E-08
 -0.4611543E-02  0.0000000E+00 -0.5050505E-02  0.8295643E-10  0.0000000E+00  0.9367123E-08
 -0.4503035E-02  0.0000000E+00 -0.5050505E-02  0.7829274E-10  0.0000000E+00  0.9400054E-08
 -0.4345206E-02  0.0000000E+00 -0.5050505E-02  0.7329305E-10  0.0000000E+00  0.9431012E-08
 -0.4187378E-02  0.0000000E+00 -0.5050505E-02  0.6797690E-10  0.0000000E+00  0.9459866E-08
 -0.3985156E-02  0.0000000E+00 -0.5050505E-02  0.6236468E-10  0.0000000E+00  0.9486488E-08
 -0.3669499E-02  0.0000000E+00 -0.5050505E-02  0.5647724E-10  0.0000000E+00  0.9510764E-08
 -0.3353842E-02  0.0000000E+00 -0.5050505E-02  0.5033518E-10  0.0000000E+00  0.9532585E-08
 -0.2978990E-02  0.0000000E+00 -0.5050505E-02  0.4395764E-10  0.0000000E+00  0.9551852E-08
 -0.2347676E-02  0.0000000E+00 -0.5050505E-02  0.3736155E-10  0.0000000E+00  0.9568471E-08
 -0.1716362E-02  0.0000000E+00 -0.5050505E-02  0.3056126E-10  0.0000000E+00  0.9582355E-08
 -0.1025842E-02  0.0000000E+00 -0.5050505E-02  0.2357297E-10  0.0000000E+00  0.9593420E-08
  0.2367855E-03  0.0000000E+00 -0.5050505E-02  0.1642924E-10  0.0000000E+00  0.9601590E-08
  0.1499413E-02  0.0000000E+00 -0.5050505E-02  0.9217734E-11  0.0000000E+00  0.9606817E-08
  0.2762042E-02  0.0000000E+00 -0.5050505E-02  0.2158762E-11  0.0000000E+00  0.9609163E-08
 -0.5050505E-02  0.0000000E+00 -0.5050505E-02 -0.4204823E-11  0.0000000E+00  0.9608789E-08
 -0.5050505E-02  0.0000000E+00 -0.5050505E-02 -0.1089769E-10  0.0000000E+00  0.9605699E-08
 -0.5050505E-02  0.0000000E+00 -0.5050505E-02 -0.1830723E-10  0.0000000E+00  0.9599712E-08
 -0.5050505E-02  0.0000000E+00 -0.5050505E-02 -0.2561722E-10  0.0000000E+00  0.9590747E-08
 -0.5050505E-02  0.0000000E+00 -0.5050505E-02 -0.3270563E-10  0.0000000E+00  0.9578853E-08
 -0.5050505E-02  0.0000000E+00 -0.5050505E-02 -0.3958288E-10  0.0000000E+00  0.9564110E-08
 -0.5050505E-02  0.0000000E+00 -0.5050505E-02 -0.4626137E-10  0.0000000E+00  0.9546597E-08
 -0.5050504E-02  0.0000000E+00 -0.5050505E-02 -0.5273754E-10  0.0000000E+00  0.9526396E-08
 -0.5050501E-02  0.0000000E+00 -0.5050505E-02 -0.5899664E-10  0.0000000E+00  0.9503595E-08
 -0.5050495E-02  0.0000000E+00 -0.5050505E-02 -0.6501806E-10  0.0000000E+00  0.9478285E-08
 -0.5050482E-02  0.0000000E+00 -0.5050505E-02 -0.7077919E-10  0.0000000E+00  0.9450569E-08
 -0.5050449E-02  0.0000000E+00 -0.5050505E-02 -0.7625730E-10  0.0000000E+00  0.9420559E-08
 -0.5050376E-02  0.0000000E+00 -0.5050505E-02 -0.8143020E-10  0.0000000E+00  0.9388374E-08
 -0.5050299E-02  0.0000000E+00 -0.5050505E-02 -0.8627678E-10  0.0000000E+00  0.9354143E-08
 -0.5050178E-02  0.0000000E+00 -0.5050505E-02 -0.9077748E-10  0.0000000E+00  0.9318005E-08
 -0.5050018E-02  0.0000000E+00 -0.5050505E-02 -0.9491401E-10  0.0000000E+00  0.9280103E-08
 -0.5049710E-02  0.0000000E+00 -0.5050505E-02 -0.9866971E-10  0.0000000E+00  0.9240591E-08
 -0.5049253E-02  0.0000000E+00 -0.5050505E-02 -0.1020295E-09  0.0000000E+00  0.9199626E-08
 -0.5048636E-02  0.0000000E+00 -0.5050505E-02 -0.1049800E-09  0.0000000E+00  0.9157373E-08
 -0.5047442E-02  0.0000000E+00 -0.5050505E-02 -0.1075096E-09  0.0000000E+00  0.9114002E-08
 -0.5045727E-02  0.0000000E+00 -0.5050505E-02 -0.1096080E-09  0.0000000E+00  0.9069686E-08
 -0.5043261E-02  0.0000000E+00 -0.5050505E-02 -0.1112672E-09  0.0000000E+00  0.9024603E-08
 -0.5038714E-02  0.0000000E+00 -0.5050505E-02 -0.1124804E-09  0.0000000E+00  0.8978934E-08
 -0.5032318E-02  0.0000000E+00 -0.5050505E-02 -0.1132427E-09  0.0000000E+00  0.8932861E-08
 -0.5022454E-02  0.0000000E+00 -0.5050505E-02 -0.1135508E-09  0.0000000E+00  0.8886570E-08
 -0.5012589E-02  0.0000000E+00 -0.5050505E-02 -0.1134027E-09  0.0000000E+00  0.8840245E-08
 -0.5002725E-02  0.0000000E+00 -0.5050505E-02 -0.1127982E-09  0.0000000E+00  0.8794073E-08
 -0.4992860E-02  0.0000000E+00 -0.5050505E-02 -0.1117382E-09  0.0000000E+00  0.8748239E-08
 -0.4976523E-02  0.0000000E+00 -0.5050505E-02 -0.1102247E-09  0.0000000E+00  0.8702928E-08
 -0.4956794E-02  0.0000000E+00 -0.5050505E-02 -0.1082606E-09  0.0000000E+00  0.8658323E-08
 -0.4937066E-02  0.0000000E+00 -0.5050505E-02 -0.1058492E-09  0.0000000E+00  0.8614607E-08
 -0.4906239E-02  0.0000000E+00 -0.5050505E-02 -0.1029940E-09  0.0000000E+00  0.8571960E-08
 -0.4866782E-02  0.0000000E+00 -0.5050505E-02 -0.9969756E-10  0.0000000E+00  0.8530559E-08
 -0.4827325E-02  0.0000000E+00 -0.5050505E-02 -0.9596094E-10  0.0000000E+00  0.8490581E-08
 -0.4769372E-02  0.0000000E+00 -0.5050505E-02 -0.9178179E-10  0.0000000E+00  0.8452201E-08
 -0.4690458E-02  0.0000000E+00 -0.5050505E-02 -0.8715207E-10  0.0000000E+00  0.8415592E-08
 -0.4611543E-02  0.0000000E+00 -0.5050505E-02 -0.8205445E-10  0.0000000E+00  0.8380928E-08
 -0.4503035E-02  0.0000000E+00 -0.5050505E-02 -0.7645600E-10  0.0000000E+00  0.8348387E-08
 -0.4345206E-02  0.0000000E+00 -0.5050505E-02 -0.7029819E-10  0.0000000E+00  0.8318150E-08
 -0.4187378E-02  0.0000000E+00 -0.5050505E-02 -0.6347962E-10  0.0000000E+00  0.8290405E-08
 -0.3985156E-02  0.0000000E+00 -0.5050505E-02 -0.5582794E-10  0.0000000E+00  0.8265354E-08
 -0.3669499E-02  0.0000000E+00 -0.5050505E-02 -0.4705290E-10  0.0000000E+00  0.8243200E-08
 -0.3353842E-02  0.0000000E+00 -0.5050505E-02 -0.3667593E-10  0.0000000E+00  0.8224131E-08
 -0.2978990E-02  0.0000000E+00 -0.5050505E-02 -0.2393739E-10  0.0000000E+00  0.8208216E-08
 -0.2347676E-02  0.0000000E+00 -0.5050505E-02 -0.7376385E-11  0.0000000E+00  0.8195027E-08
 -0.1716362E-02  0.0000000E+00 -0.5050505E-02  0.1515355E-10  0.0000000E+00  0.8182884E-08
 -0.1025842E-02  0.0000000E+00 -0.5050505E-02  0.4865208E-10  0.0000000E+00  0.8166921E-08
  0.2367855E-03  0.0000000E+00 -0.5050505E-02  0.9802824E-10  0.0000000E+00  0.8133705E-08
  0.1499413E-02  0.0000000E+00 -0.5050505E-02  0.1616215E-09  0.0000000E+00  0.8053479E-08
  0.5287294E-02  0.0000000E+00 -0.5050505E-02  0.1824764E-09  0.0000000E+00  0.7896515E-08
 -0.5050505E-02  0.0000000E+00 -0.5050505E-02  0.3557731E-11  0.0000000E+00  0.8271491E-08
 -0.5050505E-02  0.0000000E+00 -0.5050505E-02  0.1268442E-10  0.0000000E+00  0.8274044E-08
 -0.5050505E-02  0.0000000E+00 -0.5050505E-02  0.2289529E-10  0.0000000E+00  0.8279418E-08
 -0.5050505E-02  0.0000000E+00 -0.5050505E-02  0.3274347E-10  0.0000000E+00  0.8287691E-08
 -0.5050505E-02  0.0000000E+00 -0.5050505E-02  0.4226984E-10  0.0000000E+00  0.8298792E-08
 -0.5050505E-02  0.0000000E+00 -0.5050505E-02  0.5150782E-10  0.0000000E+00  0.8312649E-08
 -0.5050504E-02  0.0000000E+00 -0.5050505E-02  0.6047839E-10  0.0000000E+00  0.8329190E-08
 -0.5050501E-02  0.0000000E+00 -0.5050505E-02  0.6917701E-10  0.0000000E+00  0.8348337E-08
 -0.5050495E-02  0.0000000E+00 -0.5050505E-02  0.7758533E-10  0.0000000E+00  0.8370009E-08
 -0.5050482E-02  0.0000000E+00 -0.5050505E-02  0.8567985E-10  0.0000000E+00  0.8394116E-08
 -0.5050449E-02  0.0000000E+00 -0.5050505E-02  0.9343060E-10  0.0000000E+00  0.8420563E-08
 -0.5050376E-02  0.0000000E+00 -0.5050505E-02  0.1008082E-09  0.0000000E+00  0.8449244E-08
 -0.5050299E-02  0.0000000E+00 -0.5050505E-02  0.1077845E-09  0.0000000E+00  0.8480044E-08
 -0.5050178E-02  0.0000000E+00 -0.5050505E-02  0.1143308E-09  0.0000000E+00  0.8512842E-08
 -0.5050018E-02  0.0000000E+00 -0.5050505E-02  0.1204204E-09  0.0000000E+00  0.8547506E-08
 -0.5049710E-02  0.0000000E+00 -0.5050505E-02  0.1260283E-09  0.0000000E+00  0.8583899E-08
 -0.5049253E-02  0.0000000E+00 -0.5050505E-02  0.1311310E-09  0.0000000E+00  0.8621875E-08
 -0.5048636E-02  0.0000000E+00 -0.5050505E-02  0.1357067E-09  0.0000000E+00  0.8661281E-08
 -0.5047442E-02  0.0000000E+00 -0.5050505E-02  0.1397357E-09  0.0000000E+00  0.8701959E-08
 -0.5045727E-02  0.0000000E+00 -0.5050505E-02  0.1432004E-09  0.0000000E+00  0.8743746E-08
 -0.5043261E-02  0.0000000E+00 -0.5050505E-02  0.1460852E-09  0.0000000E+00  0.8786473E-08
 -0.5038714E-02  0.0000000E+00 -0.5050505E-02  0.1483767E-09  0.0000000E+00  0.8829965E-08
 -0.5032318E-02  0.0000000E+00 -0.5050505E-02  0.1500639E-09  0.0000000E+00  0.8874048E-08
 -0.5022454E-02  0.0000000E+00 -0.5050505E-02  0.1511380E-09  0.0000000E+00  0.8918540E-08
 -0.5012589E-02  0.0000000E+00 -0.5050505E-02  0.1515928E-09  0.0000000E+00  0.8963261E-08
 -0.5002725E-02  0.0000000E+00 -0.5050505E-02  0.1514245E-09  0.0000000E+00  0.9008026E-08
 -0.4992860E-02  0.0000000E+00 -0.5050505E-02  0.1506317E-09  0.0000000E+00  0.9052651E-08
 -0.4976523E-02  0.0000000E+00 -0.5050505E-02  0.1492158E-09  0.0000000E+00  0.9096953E-08
 -0.4956794E-02  0.0000000E+00 -0.5050505E-02  0.1471805E-09  0.0000000E+00  0.9140746E-08
 -0.4937066E-02  0.0000000E+00 -0.5050505E-02  0.1445324E-09  0.0000000E+00  0.9183850E-08