title = "dataset feddes"
variables = "x", "y", "z", "vx", "vy", "vz"
zone t = "velocities, solution time =  9.000E+00 days        " i =   99, j =   99, k =    1,  f=point
 -0.5050505E-02  0.0000000E+00 -0.5050505E-02 -0.1340612E-13  0.0000000E+00 -0.1481708E-09
 -0.5050505E-02  0.0000000E+00 -0.5050505E-02 -0.1038450E-13  0.0000000E+00 -0.1481946E-09
 -0.5050505E-02  0.0000000E+00 -0.5050505E-02 -0.5443426E-14  0.0000000E+00 -0.1482105E-09
 -0.5050505E-02  0.0000000E+00 -0.5050505E-02 -0.3921366E-14  0.0000000E+00 -0.1482198E-09
 -0.5050505E-02  0.0000000E+00 -0.5050505E-02 -0.3396518E-14  0.0000000E+00 -0.1482271E-09
 -0.5050505E-02  0.0000000E+00 -0.5050505E-02 -0.3014128E-14  0.0000000E+00 -0.1482336E-09
 -0.5050504E-02  0.0000000E+00 -0.5050505E-02 -0.2654232E-14  0.0000000E+00 -0.1482392E-09
 -0.5050501E-02  0.0000000E+00 -0.5050505E-02 -0.2189367E-14  0.0000000E+00 -0.1482441E-09
 -0.5050495E-02  0.0000000E+00 -0.5050505E-02 -0.1821973E-14  0.0000000E+00 -0.1482481E-09
 -0.5050482E-02  0.0000000E+00 -0.5050505E-02 -0.1776986E-14  0.0000000E+00 -0.1482517E-09
 -0.5050449E-02  0.0000000E+00 -0.5050505E-02 -0.1694510E-14  0.0000000E+00 -0.1482551E-09
 -0.5050376E-02  0.0000000E+00 -0.5050505E-02 -0.1574545E-14  0.0000000E+00 -0.1482584E-09
 -0.5050299E-02  0.0000000E+00 -0.5050505E-02 -0.1432086E-14  0.0000000E+00 -0.1482614E-09
 -0.5050178E-02  0.0000000E+00 -0.5050505E-02 -0.1679514E-14  0.0000000E+00 -0.1482645E-09
 -0.5050018E-02  0.0000000E+00 -0.5050505E-02 -0.1911947E-14  0.0000000E+00 -0.1482681E-09
 -0.5049710E-02  0.0000000E+00 -0.5050505E-02 -0.1731999E-14  0.0000000E+00 -0.1482718E-09
 -0.5049253E-02  0.0000000E+00 -0.5050505E-02 -0.1447081E-14  0.0000000E+00 -0.1482749E-09
 -0.5048636E-02  0.0000000E+00 -0.5050505E-02 -0.8322593E-15  0.0000000E+00 -0.1482772E-09
 -0.5047442E-02  0.0000000E+00 -0.5050505E-02 -0.8997398E-15  0.0000000E+00 -0.1482790E-09
 -0.5045727E-02  0.0000000E+00 -0.5050505E-02 -0.9147354E-15  0.0000000E+00 -0.1482808E-09
 -0.5043261E-02  0.0000000E+00 -0.5050505E-02 -0.8622506E-15  0.0000000E+00 -0.1482825E-09
 -0.5038714E-02  0.0000000E+00 -0.5050505E-02 -0.7422853E-15  0.0000000E+00 -0.1482842E-09
 -0.5032318E-02  0.0000000E+00 -0.5050505E-02 -0.6073243E-15  0.0000000E+00 -0.1482855E-09
 -0.5022454E-02  0.0000000E+00 -0.5050505E-02 -0.8622506E-15  0.0000000E+00 -0.1482870E-09
 -0.5012589E-02  0.0000000E+00 -0.5050505E-02 -0.1109679E-14  0.0000000E+00 -0.1482889E-09
 -0.5002725E-02  0.0000000E+00 -0.5050505E-02 -0.9372289E-15  0.0000000E+00 -0.1482910E-09
 -0.4992860E-02  0.0000000E+00 -0.5050505E-02 -0.7422853E-15  0.0000000E+00 -0.1482927E-09
 -0.4976523E-02  0.0000000E+00 -0.5050505E-02 -0.6073243E-15  0.0000000E+00 -0.1482940E-09
 -0.4956794E-02  0.0000000E+00 -0.5050505E-02 -0.5173504E-15  0.0000000E+00 -0.1482951E-09
 -0.4937066E-02  0.0000000E+00 -0.5050505E-02 -0.4498699E-15  0.0000000E+00 -0.1482961E-09
 -0.4906239E-02  0.0000000E+00 -0.5050505E-02 -0.4048829E-15  0.0000000E+00 -0.1482970E-09
 -0.4866782E-02  0.0000000E+00 -0.5050505E-02 -0.3598959E-15  0.0000000E+00 -0.1482977E-09
 -0.4827325E-02  0.0000000E+00 -0.5050505E-02 -0.3074111E-15  0.0000000E+00 -0.1482984E-09
 -0.4769372E-02  0.0000000E+00 -0.5050505E-02 -0.2774198E-15  0.0000000E+00 -0.1482990E-09
 -0.4690458E-02  0.0000000E+00 -0.5050505E-02 -0.2324328E-15  0.0000000E+00 -0.1482995E-09
 -0.4611543E-02  0.0000000E+00 -0.5050505E-02 -0.1949436E-15  0.0000000E+00 -0.1482999E-09
 -0.4503035E-02  0.0000000E+00 -0.5050505E-02 -0.1649523E-15  0.0000000E+00 -0.1483003E-09
 -0.4345206E-02  0.0000000E+00 -0.5050505E-02 -0.1199653E-15  0.0000000E+00 -0.1483006E-09
 -0.4187378E-02  0.0000000E+00 -0.5050505E-02 -0.1049696E-15  0.0000000E+00 -0.1483008E-09
 -0.3985156E-02  0.0000000E+00 -0.5050505E-02 -0.6748048E-16  0.0000000E+00 -0.1483010E-09
 -0.3669499E-02  0.0000000E+00 -0.5050505E-02 -0.6748048E-16  0.0000000E+00 -0.1483011E-09
 -0.3353842E-02  0.0000000E+00 -0.5050505E-02 -0.5998265E-16  0.0000000E+00 -0.1483012E-09
 -0.2978990E-02  0.0000000E+00 -0.5050505E-02 -0.1499566E-16  0.0000000E+00 -0.1483013E-09
 -0.2347676E-02  0.0000000E+00 -0.5050505E-02 -0.3748916E-16  0.0000000E+00 -0.1483014E-09
 -0.1716362E-02  0.0000000E+00 -0.5050505E-02 -0.4498699E-16  0.0000000E+00 -0.1483014E-09
 -0.1025842E-02  0.0000000E+00 -0.5050505E-02 -0.6748048E-16  0.0000000E+00 -0.1483015E-09
  0.2367855E-03  0.0000000E+00 -0.5050505E-02  0.1724501E-15  0.0000000E+00 -0.1483014E-09
  0.1499413E-02  0.0000000E+00 -0.5050505E-02  0.5998265E-16  0.0000000E+00 -0.1483012E-09
  0.2762042E-02  0.0000000E+00 -0.5050505E-02  0.3748916E-16  0.0000000E+00 -0.1483011E-09
 -0.5050505E-02  0.0000000E+00 -0.5050505E-02 -0.4123807E-15  0.0000000E+00 -0.1483015E-09
 -0.5050505E-02  0.0000000E+00 -0.5050505E-02 -0.4048829E-15  0.0000000E+00 -0.1483023E-09
 -0.5050505E-02  0.0000000E+00 -0.5050505E-02 -0.2474284E-15  0.0000000E+00 -0.1483030E-09
 -0.5050505E-02  0.0000000E+00 -0.5050505E-02  0.2249349E-16  0.0000000E+00 -0.1483032E-09
 -0.5050505E-02  0.0000000E+00 -0.5050505E-02  0.1499566E-16  0.0000000E+00 -0.1483031E-09
 -0.5050505E-02  0.0000000E+00 -0.5050505E-02 -0.1049696E-15  0.0000000E+00 -0.1483032E-09
 -0.5050505E-02  0.0000000E+00 -0.5050505E-02 -0.2549263E-15  0.0000000E+00 -0.1483036E-09
 -0.5050504E-02  0.0000000E+00 -0.5050505E-02 -0.3374024E-15  0.0000000E+00 -0.1483042E-09
 -0.5050501E-02  0.0000000E+00 -0.5050505E-02 -0.3973851E-15  0.0000000E+00 -0.1483049E-09
 -0.5050495E-02  0.0000000E+00 -0.5050505E-02 -0.4423721E-15  0.0000000E+00 -0.1483058E-09
 -0.5050482E-02  0.0000000E+00 -0.5050505E-02 -0.4798612E-15  0.0000000E+00 -0.1483067E-09
 -0.5050449E-02  0.0000000E+00 -0.5050505E-02 -0.5323460E-15  0.0000000E+00 -0.1483077E-09
 -0.5050376E-02  0.0000000E+00 -0.5050505E-02 -0.5773330E-15  0.0000000E+00 -0.1483088E-09
 -0.5050299E-02  0.0000000E+00 -0.5050505E-02 -0.6523113E-15  0.0000000E+00 -0.1483100E-09
 -0.5050178E-02  0.0000000E+00 -0.5050505E-02 -0.7197918E-15  0.0000000E+00 -0.1483114E-09
 -0.5050018E-02  0.0000000E+00 -0.5050505E-02 -0.7947701E-15  0.0000000E+00 -0.1483129E-09
 -0.5049710E-02  0.0000000E+00 -0.5050505E-02 -0.8922419E-15  0.0000000E+00 -0.1483146E-09
 -0.5049253E-02  0.0000000E+00 -0.5050505E-02 -0.9972116E-15  0.0000000E+00 -0.1483165E-09
 -0.5048636E-02  0.0000000E+00 -0.5050505E-02 -0.1124675E-14  0.0000000E+00 -0.1483186E-09
 -0.5047442E-02  0.0000000E+00 -0.5050505E-02 -0.1252138E-14  0.0000000E+00 -0.1483210E-09
 -0.5045727E-02  0.0000000E+00 -0.5050505E-02 -0.1409592E-14  0.0000000E+00 -0.1483237E-09
 -0.5043261E-02  0.0000000E+00 -0.5050505E-02 -0.1582042E-14  0.0000000E+00 -0.1483267E-09
 -0.5038714E-02  0.0000000E+00 -0.5050505E-02 -0.1776986E-14  0.0000000E+00 -0.1483300E-09
 -0.5032318E-02  0.0000000E+00 -0.5050505E-02 -0.2009419E-14  0.0000000E+00 -0.1483338E-09
 -0.5022454E-02  0.0000000E+00 -0.5050505E-02 -0.2271843E-14  0.0000000E+00 -0.1483381E-09
 -0.5012589E-02  0.0000000E+00 -0.5050505E-02 -0.2556760E-14  0.0000000E+00 -0.1483429E-09
 -0.5002725E-02  0.0000000E+00 -0.5050505E-02 -0.2916656E-14  0.0000000E+00 -0.1483484E-09
 -0.4992860E-02  0.0000000E+00 -0.5050505E-02 -0.3306544E-14  0.0000000E+00 -0.1483546E-09
 -0.4976523E-02  0.0000000E+00 -0.5050505E-02 -0.3771409E-14  0.0000000E+00 -0.1483617E-09
 -0.4956794E-02  0.0000000E+00 -0.5050505E-02 -0.4318751E-14  0.0000000E+00 -0.1483698E-09
 -0.4937066E-02  0.0000000E+00 -0.5050505E-02 -0.4978560E-14  0.0000000E+00 -0.1483791E-09
 -0.4906239E-02  0.0000000E+00 -0.5050505E-02 -0.5750837E-14  0.0000000E+00 -0.1483898E-09
 -0.4866782E-02  0.0000000E+00 -0.5050505E-02 -0.6710559E-14  0.0000000E+00 -0.1484023E-09
 -0.4827325E-02  0.0000000E+00 -0.5050505E-02 -0.7880221E-14  0.0000000E+00 -0.1484169E-09
 -0.4769372E-02  0.0000000E+00 -0.5050505E-02 -0.9342298E-14  0.0000000E+00 -0.1484341E-09
 -0.4690458E-02  0.0000000E+00 -0.5050505E-02 -0.1120176E-13  0.0000000E+00 -0.1484546E-09
 -0.4611543E-02  0.0000000E+00 -0.5050505E-02 -0.1363856E-13  0.0000000E+00 -0.1484795E-09
 -0.4503035E-02  0.0000000E+00 -0.5050505E-02 -0.1684013E-13  0.0000000E+00 -0.1485099E-09
 -0.4345206E-02  0.0000000E+00 -0.5050505E-02 -0.2122636E-13  0.0000000E+00 -0.1485480E-09
 -0.4187378E-02  0.0000000E+00 -0.5050505E-02 -0.2735959E-13  0.0000000E+00 -0.1485966E-09
 -0.3985156E-02  0.0000000E+00 -0.5050505E-02 -0.3628201E-13  0.0000000E+00 -0.1486602E-09
 -0.3669499E-02  0.0000000E+00 -0.5050505E-02 -0.4972562E-13  0.0000000E+00 -0.1487462E-09
 -0.3353842E-02  0.0000000E+00 -0.5050505E-02 -0.7110193E-13  0.0000000E+00 -0.1488671E-09
 -0.2978990E-02  0.0000000E+00 -0.5050505E-02 -0.1071290E-12  0.0000000E+00 -0.1490453E-09
 -0.2347676E-02  0.0000000E+00 -0.5050505E-02 -0.1726526E-12  0.0000000E+00 -0.1493251E-09
 -0.1716362E-02  0.0000000E+00 -0.5050505E-02 -0.3033098E-12  0.0000000E+00 -0.1498010E-09
 -0.1025842E-02  0.0000000E+00 -0.5050505E-02 -0.5942781E-12  0.0000000E+00 -0.1506986E-09
  0.2367855E-03  0.0000000E+00 -0.5050505E-02 -0.1328361E-11  0.0000000E+00 -0.1526213E-09
  0.1499413E-02  0.0000000E+00 -0.5050505E-02 -0.3436983E-11  0.0000000E+00 -0.1573866E-09
  0.5287294E-02  0.0000000E+00 -0.5050505E-02 -0.5576564E-10  0.0000000E+00 -0.1258798E-09
 -0.5050505E-02  0.0000000E+00 -0.5050505E-02 -0.3288788E-13  0.0000000E+00 -0.1480116E-09
 -0.5050505E-02  0.0000000E+00 -0.5050505E-02 -0.2771901E-13  0.0000000E+00 -0.1480248E-09
 -0.5050505E-02  0.0000000E+00 -0.5050505E-02 -0.1488980E-13  0.0000000E+00 -0.1480358E-09
 -0.5050505E-02  0.0000000E+00 -0.5050505E-02 -0.1107884E-13  0.0000000E+00 -0.1480431E-09
 -0.5050505E-02  0.0000000E+00 -0.5050505E-02 -0.9845701E-14  0.0000000E+00 -0.1480495E-09
 -0.5050505E-02  0.0000000E+00 -0.5050505E-02 -0.8919045E-14  0.0000000E+00 -0.1480554E-09
 -0.5050504E-02  0.0000000E+00 -0.5050505E-02 -0.7724111E-14  0.0000000E+00 -0.1480608E-09
 -0.5050501E-02  0.0000000E+00 -0.5050505E-02 -0.6431662E-14  0.0000000E+00 -0.1480653E-09
 -0.5050495E-02  0.0000000E+00 -0.5050505E-02 -0.5572192E-14  0.0000000E+00 -0.1480693E-09
 -0.5050482E-02  0.0000000E+00 -0.5050505E-02 -0.5355724E-14  0.0000000E+00 -0.1480730E-09
 -0.5050449E-02  0.0000000E+00 -0.5050505E-02 -0.5057032E-14  0.0000000E+00 -0.1480765E-09
 -0.5050376E-02  0.0000000E+00 -0.5050505E-02 -0.4691029E-14  0.0000000E+00 -0.1480798E-09
 -0.5050299E-02  0.0000000E+00 -0.5050505E-02 -0.4392000E-14  0.0000000E+00 -0.1480828E-09
 -0.5050178E-02  0.0000000E+00 -0.5050505E-02 -0.5034581E-14  0.0000000E+00 -0.1480861E-09
 -0.5050018E-02  0.0000000E+00 -0.5050505E-02 -0.5595064E-14  0.0000000E+00 -0.1480895E-09
 -0.5049710E-02  0.0000000E+00 -0.5050505E-02 -0.5154167E-14  0.0000000E+00 -0.1480930E-09
 -0.5049253E-02  0.0000000E+00 -0.5050505E-02 -0.3996932E-14  0.0000000E+00 -0.1480958E-09
 -0.5048636E-02  0.0000000E+00 -0.5050505E-02 -0.2718552E-14  0.0000000E+00 -0.1480980E-09
 -0.5047442E-02  0.0000000E+00 -0.5050505E-02 -0.2778577E-14  0.0000000E+00 -0.1481000E-09
 -0.5045727E-02  0.0000000E+00 -0.5050505E-02 -0.2763750E-14  0.0000000E+00 -0.1481020E-09
 -0.5043261E-02  0.0000000E+00 -0.5050505E-02 -0.2547240E-14  0.0000000E+00 -0.1481037E-09
 -0.5038714E-02  0.0000000E+00 -0.5050505E-02 -0.2203603E-14  0.0000000E+00 -0.1481053E-09
 -0.5032318E-02  0.0000000E+00 -0.5050505E-02 -0.1926984E-14  0.0000000E+00 -0.1481067E-09
 -0.5022454E-02  0.0000000E+00 -0.5050505E-02 -0.2562151E-14  0.0000000E+00 -0.1481083E-09
 -0.5012589E-02  0.0000000E+00 -0.5050505E-02 -0.3137630E-14  0.0000000E+00 -0.1481100E-09
 -0.5002725E-02  0.0000000E+00 -0.5050505E-02 -0.2763876E-14  0.0000000E+00 -0.1481119E-09
 -0.4992860E-02  0.0000000E+00 -0.5050505E-02 -0.2255793E-14  0.0000000E+00 -0.1481135E-09
 -0.4976523E-02  0.0000000E+00 -0.5050505E-02 -0.1844971E-14  0.0000000E+00 -0.1481149E-09
 -0.4956794E-02  0.0000000E+00 -0.5050505E-02 -0.1576060E-14  0.0000000E+00 -0.1481161E-09
 -0.4937066E-02  0.0000000E+00 -0.5050505E-02 -0.1374377E-14  0.0000000E+00 -0.1481171E-09
 -0.4906239E-02  0.0000000E+00 -0.5050505E-02 -0.1225010E-14  0.0000000E+00 -0.1481180E-09
 -0.4866782E-02  0.0000000E+00 -0.5050505E-02 -0.1075643E-14  0.0000000E+00 -0.1481188E-09
 -0.4827325E-02  0.0000000E+00 -0.5050505E-02 -0.9411459E-15  0.0000000E+00 -0.1481195E-09
 -0.4769372E-02  0.0000000E+00 -0.5050505E-02 -0.8216861E-15  0.0000000E+00 -0.1481201E-09
 -0.4690458E-02  0.0000000E+00 -0.5050505E-02 -0.7021421E-15  0.0000000E+00 -0.1481206E-09
 -0.4611543E-02  0.0000000E+00 -0.5050505E-02 -0.5900959E-15  0.0000000E+00 -0.1481210E-09
 -0.4503035E-02  0.0000000E+00 -0.5050505E-02 -0.4855475E-15  0.0000000E+00 -0.1481214E-09
 -0.4345206E-02  0.0000000E+00 -0.5050505E-02 -0.3734592E-15  0.0000000E+00 -0.1481217E-09
 -0.4187378E-02  0.0000000E+00 -0.5050505E-02 -0.2913622E-15  0.0000000E+00 -0.1481219E-09
 -0.3985156E-02  0.0000000E+00 -0.5050505E-02 -0.2165946E-15  0.0000000E+00 -0.1481221E-09
 -0.3669499E-02  0.0000000E+00 -0.5050505E-02 -0.1793160E-15  0.0000000E+00 -0.1481222E-09
 -0.3353842E-02  0.0000000E+00 -0.5050505E-02 -0.1792739E-15  0.0000000E+00 -0.1481223E-09
 -0.2978990E-02  0.0000000E+00 -0.5050505E-02 -0.4481848E-16  0.0000000E+00 -0.1481224E-09
 -0.2347676E-02  0.0000000E+00 -0.5050505E-02 -0.1344133E-15  0.0000000E+00 -0.1481224E-09
 -0.1716362E-02  0.0000000E+00 -0.5050505E-02 -0.1568225E-15  0.0000000E+00 -0.1481226E-09
 -0.1025842E-02  0.0000000E+00 -0.5050505E-02 -0.6748048E-16  0.0000000E+00 -0.1481226E-09
  0.2367855E-03  0.0000000E+00 -0.5050505E-02  0.3066528E-15  0.0000000E+00 -0.1481225E-09
  0.1499413E-02  0.0000000E+00 -0.5050505E-02  0.1569068E-15  0.0000000E+00 -0.1481225E-09
  0.2762042E-02  0.0000000E+00 -0.5050505E-02  0.2984388E-15  0.0000000E+00 -0.1481223E-09
 -0.5050505E-02  0.0000000E+00 -0.5050505E-02 -0.1068483E-14  0.0000000E+00 -0.1481223E-09
 -0.5050505E-02  0.0000000E+00 -0.5050505E-02 -0.1284656E-14  0.0000000E+00 -0.1481230E-09
 -0.5050505E-02  0.0000000E+00 -0.5050505E-02 -0.8066062E-15  0.0000000E+00 -0.1481238E-09
 -0.5050505E-02  0.0000000E+00 -0.5050505E-02  0.2249349E-16  0.0000000E+00 -0.1481242E-09
 -0.5050505E-02  0.0000000E+00 -0.5050505E-02  0.8425591E-19  0.0000000E+00 -0.1481242E-09
 -0.5050505E-02  0.0000000E+00 -0.5050505E-02 -0.3137293E-15  0.0000000E+00 -0.1481243E-09
 -0.5050505E-02  0.0000000E+00 -0.5050505E-02 -0.7320913E-15  0.0000000E+00 -0.1481247E-09
 -0.5050504E-02  0.0000000E+00 -0.5050505E-02 -0.1000960E-14  0.0000000E+00 -0.1481252E-09
 -0.5050501E-02  0.0000000E+00 -0.5050505E-02 -0.1172778E-14  0.0000000E+00 -0.1481259E-09
 -0.5050495E-02  0.0000000E+00 -0.5050505E-02 -0.1314689E-14  0.0000000E+00 -0.1481267E-09
 -0.5050482E-02  0.0000000E+00 -0.5050505E-02 -0.1434191E-14  0.0000000E+00 -0.1481276E-09
 -0.5050449E-02  0.0000000E+00 -0.5050505E-02 -0.1583600E-14  0.0000000E+00 -0.1481286E-09
 -0.5050376E-02  0.0000000E+00 -0.5050505E-02 -0.1732967E-14  0.0000000E+00 -0.1481298E-09
 -0.5050299E-02  0.0000000E+00 -0.5050505E-02 -0.1942148E-14  0.0000000E+00 -0.1481310E-09
 -0.5050178E-02  0.0000000E+00 -0.5050505E-02 -0.2143831E-14  0.0000000E+00 -0.1481323E-09
 -0.5050018E-02  0.0000000E+00 -0.5050505E-02 -0.2382835E-14  0.0000000E+00 -0.1481338E-09
 -0.5049710E-02  0.0000000E+00 -0.5050505E-02 -0.2659244E-14  0.0000000E+00 -0.1481355E-09
 -0.5049253E-02  0.0000000E+00 -0.5050505E-02 -0.2980429E-14  0.0000000E+00 -0.1481374E-09
 -0.5048636E-02  0.0000000E+00 -0.5050505E-02 -0.3346474E-14  0.0000000E+00 -0.1481395E-09
 -0.5047442E-02  0.0000000E+00 -0.5050505E-02 -0.3742343E-14  0.0000000E+00 -0.1481418E-09
 -0.5045727E-02  0.0000000E+00 -0.5050505E-02 -0.4198025E-14  0.0000000E+00 -0.1481445E-09
 -0.5043261E-02  0.0000000E+00 -0.5050505E-02 -0.4720894E-14  0.0000000E+00 -0.1481474E-09
 -0.5038714E-02  0.0000000E+00 -0.5050505E-02 -0.5310989E-14  0.0000000E+00 -0.1481507E-09
 -0.5032318E-02  0.0000000E+00 -0.5050505E-02 -0.5983309E-14  0.0000000E+00 -0.1481545E-09
 -0.5022454E-02  0.0000000E+00 -0.5050505E-02 -0.6767632E-14  0.0000000E+00 -0.1481587E-09
 -0.5012589E-02  0.0000000E+00 -0.5050505E-02 -0.7626639E-14  0.0000000E+00 -0.1481635E-09
 -0.5002725E-02  0.0000000E+00 -0.5050505E-02 -0.8665004E-14  0.0000000E+00 -0.1481688E-09
 -0.4992860E-02  0.0000000E+00 -0.5050505E-02 -0.9837740E-14  0.0000000E+00 -0.1481749E-09
 -0.4976523E-02  0.0000000E+00 -0.5050505E-02 -0.1121966E-13  0.0000000E+00 -0.1481819E-09
 -0.4956794E-02  0.0000000E+00 -0.5050505E-02 -0.1284062E-13  0.0000000E+00 -0.1481898E-09
 -0.4937066E-02  0.0000000E+00 -0.5050505E-02 -0.1476790E-13  0.0000000E+00 -0.1481989E-09
 -0.4906239E-02  0.0000000E+00 -0.5050505E-02 -0.1706114E-13  0.0000000E+00 -0.1482093E-09
 -0.4866782E-02  0.0000000E+00 -0.5050505E-02 -0.1986988E-13  0.0000000E+00 -0.1482214E-09
 -0.4827325E-02  0.0000000E+00 -0.5050505E-02 -0.2329862E-13  0.0000000E+00 -0.1482354E-09
 -0.4769372E-02  0.0000000E+00 -0.5050505E-02 -0.2757149E-13  0.0000000E+00 -0.1482520E-09
 -0.4690458E-02  0.0000000E+00 -0.5050505E-02 -0.3299478E-13  0.0000000E+00 -0.1482716E-09
 -0.4611543E-02  0.0000000E+00 -0.5050505E-02 -0.4001683E-13  0.0000000E+00 -0.1482950E-09
 -0.4503035E-02  0.0000000E+00 -0.5050505E-02 -0.4925753E-13  0.0000000E+00 -0.1483235E-09
 -0.4345206E-02  0.0000000E+00 -0.5050505E-02 -0.6177793E-13  0.0000000E+00 -0.1483586E-09
 -0.4187378E-02  0.0000000E+00 -0.5050505E-02 -0.7914690E-13  0.0000000E+00 -0.1484027E-09
 -0.3985156E-02  0.0000000E+00 -0.5050505E-02 -0.1040394E-12  0.0000000E+00 -0.1484589E-09
 -0.3669499E-02  0.0000000E+00 -0.5050505E-02 -0.1409461E-12  0.0000000E+00 -0.1485324E-09
 -0.3353842E-02  0.0000000E+00 -0.5050505E-02 -0.1981397E-12  0.0000000E+00 -0.1486305E-09
 -0.2978990E-02  0.0000000E+00 -0.5050505E-02 -0.2911805E-12  0.0000000E+00 -0.1487643E-09
 -0.2347676E-02  0.0000000E+00 -0.5050505E-02 -0.4516599E-12  0.0000000E+00 -0.1489492E-09
 -0.1716362E-02  0.0000000E+00 -0.5050505E-02 -0.7476175E-12  0.0000000E+00 -0.1491992E-09
 -0.1025842E-02  0.0000000E+00 -0.5050505E-02 -0.1335837E-11  0.0000000E+00 -0.1494925E-09
  0.2367855E-03  0.0000000E+00 -0.5050505E-02 -0.2602034E-11  0.0000000E+00 -0.1495959E-09
  0.1499413E-02  0.0000000E+00 -0.5050505E-02 -0.5551794E-11  0.0000000E+00 -0.1482458E-09
  0.5287294E-02  0.0000000E+00 -0.5050505E-02 -0.1292683E-10  0.0000000E+00 -0.1393618E-09
 -0.5050505E-02  0.0000000E+00 -0.5050505E-02 -0.4177532E-13  0.0000000E+00 -0.1476584E-09
 -0.5050505E-02  0.0000000E+00 -0.5050505E-02 -0.3924997E-13  0.0000000E+00 -0.1476660E-09
 -0.5050505E-02  0.0000000E+00 -0.5050505E-02 -0.2101946E-13  0.0000000E+00 -0.1476729E-09
 -0.5050505E-02  0.0000000E+00 -0.5050505E-02 -0.1713657E-13  0.0000000E+00 -0.1476779E-09
 -0.5050505E-02  0.0000000E+00 -0.5050505E-02 -0.1541999E-13  0.0000000E+00 -0.1476833E-09
 -0.5050505E-02  0.0000000E+00 -0.5050505E-02 -0.1435675E-13  0.0000000E+00 -0.1476885E-09
 -0.5050504E-02  0.0000000E+00 -0.5050505E-02 -0.1223911E-13  0.0000000E+00 -0.1476932E-09
 -0.5050501E-02  0.0000000E+00 -0.5050505E-02 -0.1031427E-13  0.0000000E+00 -0.1476972E-09
 -0.5050495E-02  0.0000000E+00 -0.5050505E-02 -0.9518225E-14  0.0000000E+00 -0.1477011E-09
 -0.5050482E-02  0.0000000E+00 -0.5050505E-02 -0.9013119E-14  0.0000000E+00 -0.1477050E-09
 -0.5050449E-02  0.0000000E+00 -0.5050505E-02 -0.8403968E-14  0.0000000E+00 -0.1477085E-09
 -0.5050376E-02  0.0000000E+00 -0.5050505E-02 -0.7742752E-14  0.0000000E+00 -0.1477118E-09
 -0.5050299E-02  0.0000000E+00 -0.5050505E-02 -0.7497215E-14  0.0000000E+00 -0.1477149E-09
 -0.5050178E-02  0.0000000E+00 -0.5050505E-02 -0.8418754E-14  0.0000000E+00 -0.1477182E-09
 -0.5050018E-02  0.0000000E+00 -0.5050505E-02 -0.8917324E-14  0.0000000E+00 -0.1477215E-09
 -0.5049710E-02  0.0000000E+00 -0.5050505E-02 -0.8167058E-14  0.0000000E+00 -0.1477244E-09
 -0.5049253E-02  0.0000000E+00 -0.5050505E-02 -0.6227140E-14  0.0000000E+00 -0.1477269E-09
 -0.5048636E-02  0.0000000E+00 -0.5050505E-02 -0.4933402E-14  0.0000000E+00 -0.1477292E-09
 -0.5047442E-02  0.0000000E+00 -0.5050505E-02 -0.4829566E-14  0.0000000E+00 -0.1477315E-09
 -0.5045727E-02  0.0000000E+00 -0.5050505E-02 -0.4658879E-14  0.0000000E+00 -0.1477335E-09
 -0.5043261E-02  0.0000000E+00 -0.5050505E-02 -0.4213126E-14  0.0000000E+00 -0.1477354E-09
 -0.5038714E-02  0.0000000E+00 -0.5050505E-02 -0.3633588E-14  0.0000000E+00 -0.1477369E-09
 -0.5032318E-02  0.0000000E+00 -0.5050505E-02 -0.3380721E-14  0.0000000E+00 -0.1477384E-09
 -0.5022454E-02  0.0000000E+00 -0.5050505E-02 -0.4213209E-14  0.0000000E+00 -0.1477400E-09
 -0.5012589E-02  0.0000000E+00 -0.5050505E-02 -0.4711780E-14  0.0000000E+00 -0.1477415E-09
 -0.5002725E-02  0.0000000E+00 -0.5050505E-02 -0.4465992E-14  0.0000000E+00 -0.1477429E-09
 -0.4992860E-02  0.0000000E+00 -0.5050505E-02 -0.3811814E-14  0.0000000E+00 -0.1477446E-09
 -0.4976523E-02  0.0000000E+00 -0.5050505E-02 -0.3143017E-14  0.0000000E+00 -0.1477460E-09
 -0.4956794E-02  0.0000000E+00 -0.5050505E-02 -0.2712007E-14  0.0000000E+00 -0.1477473E-09
 -0.4937066E-02  0.0000000E+00 -0.5050505E-02 -0.2347974E-14  0.0000000E+00 -0.1477484E-09
 -0.4906239E-02  0.0000000E+00 -0.5050505E-02 -0.2080489E-14  0.0000000E+00 -0.1477494E-09
 -0.4866782E-02  0.0000000E+00 -0.5050505E-02 -0.1813003E-14  0.0000000E+00 -0.1477502E-09
 -0.4827325E-02  0.0000000E+00 -0.5050505E-02 -0.1597541E-14  0.0000000E+00 -0.1477509E-09
 -0.4769372E-02  0.0000000E+00 -0.5050505E-02 -0.1374622E-14  0.0000000E+00 -0.1477515E-09
 -0.4690458E-02  0.0000000E+00 -0.5050505E-02 -0.1181443E-14  0.0000000E+00 -0.1477521E-09
 -0.4611543E-02  0.0000000E+00 -0.5050505E-02 -0.9882635E-15  0.0000000E+00 -0.1477525E-09
 -0.4503035E-02  0.0000000E+00 -0.5050505E-02 -0.8024981E-15  0.0000000E+00 -0.1477529E-09
 -0.4345206E-02  0.0000000E+00 -0.5050505E-02 -0.6241884E-15  0.0000000E+00 -0.1477532E-09
 -0.4187378E-02  0.0000000E+00 -0.5050505E-02 -0.4681204E-15  0.0000000E+00 -0.1477534E-09
 -0.3985156E-02  0.0000000E+00 -0.5050505E-02 -0.3641169E-15  0.0000000E+00 -0.1477535E-09
 -0.3669499E-02  0.0000000E+00 -0.5050505E-02 -0.2749411E-15  0.0000000E+00 -0.1477537E-09
 -0.3353842E-02  0.0000000E+00 -0.5050505E-02 -0.2675691E-15  0.0000000E+00 -0.1477537E-09
 -0.2978990E-02  0.0000000E+00 -0.5050505E-02 -0.9654783E-16  0.0000000E+00 -0.1477538E-09
 -0.2347676E-02  0.0000000E+00 -0.5050505E-02 -0.2674436E-15  0.0000000E+00 -0.1477539E-09
 -0.1716362E-02  0.0000000E+00 -0.5050505E-02 -0.3416661E-15  0.0000000E+00 -0.1477541E-09
 -0.1025842E-02  0.0000000E+00 -0.5050505E-02 -0.4448334E-16  0.0000000E+00 -0.1477543E-09
  0.2367855E-03  0.0000000E+00 -0.5050505E-02  0.1045471E-15  0.0000000E+00 -0.1477545E-09
  0.1499413E-02  0.0000000E+00 -0.5050505E-02  0.8679687E-15  0.0000000E+00 -0.1477540E-09
  0.2762042E-02  0.0000000E+00 -0.5050505E-02  0.4981941E-15  0.0000000E+00 -0.1477533E-09
 -0.5050505E-02  0.0000000E+00 -0.5050505E-02 -0.1464216E-14  0.0000000E+00 -0.1477535E-09
 -0.5050505E-02  0.0000000E+00 -0.5050505E-02 -0.2280998E-14  0.0000000E+00 -0.1477542E-09
 -0.5050505E-02  0.0000000E+00 -0.5050505E-02 -0.1204186E-14  0.0000000E+00 -0.1477548E-09
 -0.5050505E-02  0.0000000E+00 -0.5050505E-02 -0.4967306E-15  0.0000000E+00 -0.1477554E-09
 -0.5050505E-02  0.0000000E+00 -0.5050505E-02  0.1481942E-15  0.0000000E+00 -0.1477557E-09
 -0.5050505E-02  0.0000000E+00 -0.5050505E-02 -0.5127292E-15  0.0000000E+00 -0.1477556E-09
 -0.5050505E-02  0.0000000E+00 -0.5050505E-02 -0.1188898E-14  0.0000000E+00 -0.1477559E-09
 -0.5050504E-02  0.0000000E+00 -0.5050505E-02 -0.1634777E-14  0.0000000E+00 -0.1477565E-09
 -0.5050501E-02  0.0000000E+00 -0.5050505E-02 -0.1917132E-14  0.0000000E+00 -0.1477572E-09
 -0.5050495E-02  0.0000000E+00 -0.5050505E-02 -0.2154920E-14  0.0000000E+00 -0.1477580E-09
 -0.5050482E-02  0.0000000E+00 -0.5050505E-02 -0.2370383E-14  0.0000000E+00 -0.1477588E-09
 -0.5050449E-02  0.0000000E+00 -0.5050505E-02 -0.2615585E-14  0.0000000E+00 -0.1477598E-09
 -0.5050376E-02  0.0000000E+00 -0.5050505E-02 -0.2875657E-14  0.0000000E+00 -0.1477609E-09
 -0.5050299E-02  0.0000000E+00 -0.5050505E-02 -0.3195206E-14  0.0000000E+00 -0.1477621E-09
 -0.5050178E-02  0.0000000E+00 -0.5050505E-02 -0.3536998E-14  0.0000000E+00 -0.1477634E-09
 -0.5050018E-02  0.0000000E+00 -0.5050505E-02 -0.3945682E-14  0.0000000E+00 -0.1477649E-09
 -0.5049710E-02  0.0000000E+00 -0.5050505E-02 -0.4406347E-14  0.0000000E+00 -0.1477666E-09
 -0.5049253E-02  0.0000000E+00 -0.5050505E-02 -0.4919118E-14  0.0000000E+00 -0.1477684E-09
 -0.5048636E-02  0.0000000E+00 -0.5050505E-02 -0.5513567E-14  0.0000000E+00 -0.1477705E-09
 -0.5047442E-02  0.0000000E+00 -0.5050505E-02 -0.6182322E-14  0.0000000E+00 -0.1477728E-09
 -0.5045727E-02  0.0000000E+00 -0.5050505E-02 -0.6925384E-14  0.0000000E+00 -0.1477753E-09
 -0.5043261E-02  0.0000000E+00 -0.5050505E-02 -0.7787360E-14  0.0000000E+00 -0.1477782E-09
 -0.5038714E-02  0.0000000E+00 -0.5050505E-02 -0.8760796E-14  0.0000000E+00 -0.1477815E-09
 -0.5032318E-02  0.0000000E+00 -0.5050505E-02 -0.9853105E-14  0.0000000E+00 -0.1477851E-09
 -0.5022454E-02  0.0000000E+00 -0.5050505E-02 -0.1112381E-13  0.0000000E+00 -0.1477892E-09
 -0.5012589E-02  0.0000000E+00 -0.5050505E-02 -0.1255791E-13  0.0000000E+00 -0.1477938E-09
 -0.5002725E-02  0.0000000E+00 -0.5050505E-02 -0.1421501E-13  0.0000000E+00 -0.1477990E-09
 -0.4992860E-02  0.0000000E+00 -0.5050505E-02 -0.1615443E-13  0.0000000E+00 -0.1478049E-09
 -0.4976523E-02  0.0000000E+00 -0.5050505E-02 -0.1839115E-13  0.0000000E+00 -0.1478115E-09
 -0.4956794E-02  0.0000000E+00 -0.5050505E-02 -0.2101427E-13  0.0000000E+00 -0.1478191E-09
 -0.4937066E-02  0.0000000E+00 -0.5050505E-02 -0.2412780E-13  0.0000000E+00 -0.1478277E-09
 -0.4906239E-02  0.0000000E+00 -0.5050505E-02 -0.2782845E-13  0.0000000E+00 -0.1478376E-09
 -0.4866782E-02  0.0000000E+00 -0.5050505E-02 -0.3230940E-13  0.0000000E+00 -0.1478489E-09
 -0.4827325E-02  0.0000000E+00 -0.5050505E-02 -0.3777127E-13  0.0000000E+00 -0.1478620E-09
 -0.4769372E-02  0.0000000E+00 -0.5050505E-02 -0.4453368E-13  0.0000000E+00 -0.1478772E-09
 -0.4690458E-02  0.0000000E+00 -0.5050505E-02 -0.5306481E-13  0.0000000E+00 -0.1478950E-09
 -0.4611543E-02  0.0000000E+00 -0.5050505E-02 -0.6397412E-13  0.0000000E+00 -0.1479160E-09
 -0.4503035E-02  0.0000000E+00 -0.5050505E-02 -0.7821300E-13  0.0000000E+00 -0.1479409E-09
 -0.4345206E-02  0.0000000E+00 -0.5050505E-02 -0.9717886E-13  0.0000000E+00 -0.1479707E-09
 -0.4187378E-02  0.0000000E+00 -0.5050505E-02 -0.1230719E-12  0.0000000E+00 -0.1480068E-09
 -0.3985156E-02  0.0000000E+00 -0.5050505E-02 -0.1592300E-12  0.0000000E+00 -0.1480507E-09
 -0.3669499E-02  0.0000000E+00 -0.5050505E-02 -0.2112218E-12  0.0000000E+00 -0.1481041E-09
 -0.3353842E-02  0.0000000E+00 -0.5050505E-02 -0.2883195E-12  0.0000000E+00 -0.1481684E-09
 -0.2978990E-02  0.0000000E+00 -0.5050505E-02 -0.4063718E-12  0.0000000E+00 -0.1482426E-09
 -0.2347676E-02  0.0000000E+00 -0.5050505E-02 -0.5930523E-12  0.0000000E+00 -0.1483185E-09
 -0.1716362E-02  0.0000000E+00 -0.5050505E-02 -0.8962437E-12  0.0000000E+00 -0.1483652E-09
 -0.1025842E-02  0.0000000E+00 -0.5050505E-02 -0.1393715E-11  0.0000000E+00 -0.1482901E-09
  0.2367855E-03  0.0000000E+00 -0.5050505E-02 -0.2181978E-11  0.0000000E+00 -0.1478466E-09
  0.1499413E-02  0.0000000E+00 -0.5050505E-02 -0.3222660E-11  0.0000000E+00 -0.1464933E-09
  0.5287294E-02  0.0000000E+00 -0.5050505E-02 -0.3465030E-11  0.0000000E+00 -0.1436903E-09
 -0.5050505E-02  0.0000000E+00 -0.5050505E-02 -0.4688786E-13  0.0000000E+00 -0.1471072E-09
 -0.5050505E-02  0.0000000E+00 -0.5050505E-02 -0.4628121E-13  0.0000000E+00 -0.1471122E-09
 -0.5050505E-02  0.0000000E+00 -0.5050505E-02 -0.2513091E-13  0.0000000E+00 -0.1471168E-09
 -0.5050505E-02  0.0000000E+00 -0.5050505E-02 -0.2167171E-13  0.0000000E+00 -0.1471207E-09
 -0.5050505E-02  0.0000000E+00 -0.5050505E-02 -0.2045699E-13  0.0000000E+00 -0.1471250E-09
 -0.5050505E-02  0.0000000E+00 -0.5050505E-02 -0.1844142E-13  0.0000000E+00 -0.1471292E-09
 -0.5050504E-02  0.0000000E+00 -0.5050505E-02 -0.1608982E-13  0.0000000E+00 -0.1471325E-09
 -0.5050501E-02  0.0000000E+00 -0.5050505E-02 -0.1427007E-13  0.0000000E+00 -0.1471365E-09
 -0.5050495E-02  0.0000000E+00 -0.5050505E-02 -0.1347953E-13  0.0000000E+00 -0.1471406E-09
 -0.5050482E-02  0.0000000E+00 -0.5050505E-02 -0.1268881E-13  0.0000000E+00 -0.1471444E-09
 -0.5050449E-02  0.0000000E+00 -0.5050505E-02 -0.1175032E-13  0.0000000E+00 -0.1471480E-09
 -0.5050376E-02  0.0000000E+00 -0.5050505E-02 -0.1078958E-13  0.0000000E+00 -0.1471512E-09
 -0.5050299E-02  0.0000000E+00 -0.5050505E-02 -0.1069325E-13  0.0000000E+00 -0.1471545E-09
 -0.5050178E-02  0.0000000E+00 -0.5050505E-02 -0.1180205E-13  0.0000000E+00 -0.1471578E-09
 -0.5050018E-02  0.0000000E+00 -0.5050505E-02 -0.1171454E-13  0.0000000E+00 -0.1471608E-09
 -0.5049710E-02  0.0000000E+00 -0.5050505E-02 -0.1053222E-13  0.0000000E+00 -0.1471631E-09
 -0.5049253E-02  0.0000000E+00 -0.5050505E-02 -0.8285033E-14  0.0000000E+00 -0.1471651E-09
 -0.5048636E-02  0.0000000E+00 -0.5050505E-02 -0.7404191E-14  0.0000000E+00 -0.1471674E-09
 -0.5047442E-02  0.0000000E+00 -0.5050505E-02 -0.7079266E-14  0.0000000E+00 -0.1471699E-09
 -0.5045727E-02  0.0000000E+00 -0.5050505E-02 -0.6658251E-14  0.0000000E+00 -0.1471722E-09
 -0.5043261E-02  0.0000000E+00 -0.5050505E-02 -0.5956297E-14  0.0000000E+00 -0.1471742E-09
 -0.5038714E-02  0.0000000E+00 -0.5050505E-02 -0.5084363E-14  0.0000000E+00 -0.1471758E-09
 -0.5032318E-02  0.0000000E+00 -0.5050505E-02 -0.4921548E-14  0.0000000E+00 -0.1471774E-09
 -0.5022454E-02  0.0000000E+00 -0.5050505E-02 -0.5808767E-14  0.0000000E+00 -0.1471790E-09
 -0.5012589E-02  0.0000000E+00 -0.5050505E-02 -0.5735997E-14  0.0000000E+00 -0.1471802E-09
 -0.5002725E-02  0.0000000E+00 -0.5050505E-02 -0.5861079E-14  0.0000000E+00 -0.1471812E-09
 -0.4992860E-02  0.0000000E+00 -0.5050505E-02 -0.5365220E-14  0.0000000E+00 -0.1471825E-09
 -0.4976523E-02  0.0000000E+00 -0.5050505E-02 -0.4493078E-14  0.0000000E+00 -0.1471840E-09
 -0.4956794E-02  0.0000000E+00 -0.5050505E-02 -0.3960855E-14  0.0000000E+00 -0.1471854E-09
 -0.4937066E-02  0.0000000E+00 -0.5050505E-02 -0.3406640E-14  0.0000000E+00 -0.1471866E-09