title = "dataset feddes"
variables = "x", "y", "z", "h_w", "p_w", "s_w", "theta_w", "transp", "evap"
zone t = "Flow variables, solution time =  6.000E+01 days        " i =  100, j =  100, k =    1,  f=point
  0.0000000E+00  0.0000000E+00  0.0000000E+00 -0.5000000E+01 -0.5000000E+01  0.5313722E+00  0.2274273E+00  0.0000000E+00  0.0000000E+00
  0.1010101E-01  0.0000000E+00  0.0000000E+00 -0.5000000E+01 -0.5000000E+01  0.5313722E+00  0.2274273E+00  0.0000000E+00  0.0000000E+00
  0.2020202E-01  0.0000000E+00  0.0000000E+00 -0.5000000E+01 -0.5000000E+01  0.5313722E+00  0.2274273E+00  0.0000000E+00  0.0000000E+00
  0.3030303E-01  0.0000000E+00  0.0000000E+00 -0.5000000E+01 -0.5000000E+01  0.5313722E+00  0.2274273E+00  0.0000000E+00  0.0000000E+00
  0.4040404E-01  0.0000000E+00  0.0000000E+00 -0.5000000E+01 -0.5000000E+01  0.5313722E+00  0.2274273E+00  0.0000000E+00  0.0000000E+00
  0.5050505E-01  0.0000000E+00  0.0000000E+00 -0.5000000E+01 -0.5000000E+01  0.5313722E+00  0.2274273E+00  0.0000000E+00  0.0000000E+00
  0.6060606E-01  0.0000000E+00  0.0000000E+00 -0.5000000E+01 -0.5000000E+01  0.5313722E+00  0.2274273E+00  0.0000000E+00  0.0000000E+00
  0.7070707E-01  0.0000000E+00  0.0000000E+00 -0.5000000E+01 -0.5000000E+01  0.5313722E+00  0.2274273E+00  0.0000000E+00  0.0000000E+00
  0.8080808E-01  0.0000000E+00  0.0000000E+00 -0.5000000E+01 -0.5000000E+01  0.5313722E+00  0.2274273E+00  0.0000000E+00  0.0000000E+00
  0.9090909E-01  0.0000000E+00  0.0000000E+00 -0.5000000E+01 -0.5000000E+01  0.5313722E+00  0.2274273E+00  0.0000000E+00  0.0000000E+00
  0.1010101E+00  0.0000000E+00  0.0000000E+00 -0.5000000E+01 -0.5000000E+01  0.5313722E+00  0.2274273E+00  0.0000000E+00  0.0000000E+00
  0.1111111E+00  0.0000000E+00  0.0000000E+00 -0.5000000E+01 -0.5000000E+01  0.5313722E+00  0.2274273E+00  0.0000000E+00  0.0000000E+00
  0.1212121E+00  0.0000000E+00  0.0000000E+00 -0.5000000E+01 -0.5000000E+01  0.5313722E+00  0.2274273E+00  0.0000000E+00  0.0000000E+00
  0.1313131E+00  0.0000000E+00  0.0000000E+00 -0.5000000E+01 -0.5000000E+01  0.5313722E+00  0.2274273E+00  0.0000000E+00  0.0000000E+00
  0.1414142E+00  0.0000000E+00  0.0000000E+00 -0.5000000E+01 -0.5000000E+01  0.5313722E+00  0.2274273E+00  0.0000000E+00  0.0000000E+00
  0.1515152E+00  0.0000000E+00  0.0000000E+00 -0.5000000E+01 -0.5000000E+01  0.5313722E+00  0.2274273E+00  0.0000000E+00  0.0000000E+00
  0.1616162E+00  0.0000000E+00  0.0000000E+00 -0.5000000E+01 -0.5000000E+01  0.5313722E+00  0.2274273E+00  0.0000000E+00  0.0000000E+00
  0.1717172E+00  0.0000000E+00  0.0000000E+00 -0.5000000E+01 -0.5000000E+01  0.5313722E+00  0.2274273E+00  0.0000000E+00  0.0000000E+00
  0.1818182E+00  0.0000000E+00  0.0000000E+00 -0.5000000E+01 -0.5000000E+01  0.5313722E+00  0.2274273E+00  0.0000000E+00  0.0000000E+00
  0.1919192E+00  0.0000000E+00  0.0000000E+00 -0.5000000E+01 -0.5000000E+01  0.5313722E+00  0.2274273E+00  0.0000000E+00  0.0000000E+00
  0.2020202E+00  0.0000000E+00  0.0000000E+00 -0.5000000E+01 -0.5000000E+01  0.5313722E+00  0.2274273E+00  0.0000000E+00  0.0000000E+00
  0.2121212E+00  0.0000000E+00  0.0000000E+00 -0.5000000E+01 -0.5000000E+01  0.5313722E+00  0.2274273E+00  0.0000000E+00  0.0000000E+00
  0.2222222E+00  0.0000000E+00  0.0000000E+00 -0.5000000E+01 -0.5000000E+01  0.5313722E+00  0.2274273E+00  0.0000000E+00  0.0000000E+00
  0.2323232E+00  0.0000000E+00  0.0000000E+00 -0.5000000E+01 -0.5000000E+01  0.5313722E+00  0.2274273E+00  0.0000000E+00  0.0000000E+00
  0.2424242E+00  0.0000000E+00  0.0000000E+00 -0.5000000E+01 -0.5000000E+01  0.5313722E+00  0.2274273E+00  0.0000000E+00  0.0000000E+00
  0.2525252E+00  0.0000000E+00  0.0000000E+00 -0.5000000E+01 -0.5000000E+01  0.5313722E+00  0.2274273E+00  0.0000000E+00  0.0000000E+00
  0.2626262E+00  0.0000000E+00  0.0000000E+00 -0.5000000E+01 -0.5000000E+01  0.5313722E+00  0.2274273E+00  0.0000000E+00  0.0000000E+00
  0.2727273E+00  0.0000000E+00  0.0000000E+00 -0.5000000E+01 -0.5000000E+01  0.5313722E+00  0.2274273E+00  0.0000000E+00  0.0000000E+00
  0.2828283E+00  0.0000000E+00  0.0000000E+00 -0.5000000E+01 -0.5000000E+01  0.5313722E+00  0.2274273E+00  0.0000000E+00  0.0000000E+00
  0.2929293E+00  0.0000000E+00  0.0000000E+00 -0.5000000E+01 -0.5000000E+01  0.5313722E+00  0.2274273E+00  0.0000000E+00  0.0000000E+00
  0.3030303E+00  0.0000000E+00  0.0000000E+00 -0.5000000E+01 -0.5000000E+01  0.5313722E+00  0.2274273E+00  0.0000000E+00  0.0000000E+00
  0.3131313E+00  0.0000000E+00  0.0000000E+00 -0.5000000E+01 -0.5000000E+01  0.5313722E+00  0.2274273E+00  0.0000000E+00  0.0000000E+00
  0.3232324E+00  0.0000000E+00  0.0000000E+00 -0.5000000E+01 -0.5000000E+01  0.5313722E+00  0.2274273E+00  0.0000000E+00  0.0000000E+00
  0.3333334E+00  0.0000000E+00  0.0000000E+00 -0.5000000E+01 -0.5000000E+01  0.5313722E+00  0.2274273E+00  0.0000000E+00  0.0000000E+00
  0.3434344E+00  0.0000000E+00  0.0000000E+00 -0.5000000E+01 -0.5000000E+01  0.5313722E+00  0.2274273E+00  0.0000000E+00  0.0000000E+00
  0.3535354E+00  0.0000000E+00  0.0000000E+00 -0.5000000E+01 -0.5000000E+01  0.5313722E+00  0.2274273E+00  0.0000000E+00  0.0000000E+00
  0.3636364E+00  0.0000000E+00  0.0000000E+00 -0.5000000E+01 -0.5000000E+01  0.5313722E+00  0.2274273E+00  0.0000000E+00  0.0000000E+00
  0.3737375E+00  0.0000000E+00  0.0000000E+00 -0.5000000E+01 -0.5000000E+01  0.5313722E+00  0.2274273E+00  0.0000000E+00  0.0000000E+00
  0.3838385E+00  0.0000000E+00  0.0000000E+00 -0.5000000E+01 -0.5000000E+01  0.5313722E+00  0.2274273E+00  0.0000000E+00  0.0000000E+00
  0.3939395E+00  0.0000000E+00  0.0000000E+00 -0.5000000E+01 -0.5000000E+01  0.5313722E+00  0.2274273E+00  0.0000000E+00  0.0000000E+00
  0.4040405E+00  0.0000000E+00  0.0000000E+00 -0.5000000E+01 -0.5000000E+01  0.5313722E+00  0.2274273E+00  0.0000000E+00  0.0000000E+00
  0.4141415E+00  0.0000000E+00  0.0000000E+00 -0.5000000E+01 -0.5000000E+01  0.5313722E+00  0.2274273E+00  0.0000000E+00  0.0000000E+00
  0.4242426E+00  0.0000000E+00  0.0000000E+00 -0.5000000E+01 -0.5000000E+01  0.5313722E+00  0.2274273E+00  0.0000000E+00  0.0000000E+00
  0.4343436E+00  0.0000000E+00  0.0000000E+00 -0.5000000E+01 -0.5000000E+01  0.5313722E+00  0.2274273E+00  0.0000000E+00  0.0000000E+00
  0.4444446E+00  0.0000000E+00  0.0000000E+00 -0.5000000E+01 -0.5000000E+01  0.5313722E+00  0.2274273E+00  0.0000000E+00  0.0000000E+00
  0.4545456E+00  0.0000000E+00  0.0000000E+00 -0.5000000E+01 -0.5000000E+01  0.5313722E+00  0.2274273E+00  0.0000000E+00  0.0000000E+00
  0.4646466E+00  0.0000000E+00  0.0000000E+00 -0.5000000E+01 -0.5000000E+01  0.5313722E+00  0.2274273E+00  0.0000000E+00  0.0000000E+00
  0.4747477E+00  0.0000000E+00  0.0000000E+00 -0.5000000E+01 -0.5000000E+01  0.5313722E+00  0.2274273E+00  0.0000000E+00  0.0000000E+00
  0.4848487E+00  0.0000000E+00  0.0000000E+00 -0.5000000E+01 -0.5000000E+01  0.5313722E+00  0.2274273E+00  0.0000000E+00  0.0000000E+00
  0.4949497E+00  0.0000000E+00  0.0000000E+00 -0.5000000E+01 -0.5000000E+01  0.5313722E+00  0.2274273E+00  0.0000000E+00  0.0000000E+00
  0.5050507E+00  0.0000000E+00  0.0000000E+00 -0.5000000E+01 -0.5000000E+01  0.5313722E+00  0.2274273E+00  0.0000000E+00  0.0000000E+00
  0.5151517E+00  0.0000000E+00  0.0000000E+00 -0.5000000E+01 -0.5000000E+01  0.5313722E+00  0.2274273E+00  0.0000000E+00  0.0000000E+00
  0.5252528E+00  0.0000000E+00  0.0000000E+00 -0.5000000E+01 -0.5000000E+01  0.5313722E+00  0.2274273E+00  0.0000000E+00  0.0000000E+00
  0.5353538E+00  0.0000000E+00  0.0000000E+00 -0.5000000E+01 -0.5000000E+01  0.5313722E+00  0.2274273E+00  0.0000000E+00  0.0000000E+00
  0.5454548E+00  0.0000000E+00  0.0000000E+00 -0.5000000E+01 -0.5000000E+01  0.5313722E+00  0.2274273E+00  0.0000000E+00  0.0000000E+00
  0.5555558E+00  0.0000000E+00  0.0000000E+00 -0.5000000E+01 -0.5000000E+01  0.5313722E+00  0.2274273E+00  0.0000000E+00  0.0000000E+00
  0.5656568E+00  0.0000000E+00  0.0000000E+00 -0.5000000E+01 -0.5000000E+01  0.5313722E+00  0.2274273E+00  0.0000000E+00  0.0000000E+00
  0.5757579E+00  0.0000000E+00  0.0000000E+00 -0.5000000E+01 -0.5000000E+01  0.5313722E+00  0.2274273E+00  0.0000000E+00  0.0000000E+00
  0.5858589E+00  0.0000000E+00  0.0000000E+00 -0.5000000E+01 -0.5000000E+01  0.5313722E+00  0.2274273E+00  0.0000000E+00  0.0000000E+00
  0.5959599E+00  0.0000000E+00  0.0000000E+00 -0.5000000E+01 -0.5000000E+01  0.5313722E+00  0.2274273E+00  0.0000000E+00  0.0000000E+00
  0.6060609E+00  0.0000000E+00  0.0000000E+00 -0.5000000E+01 -0.5000000E+01  0.5313722E+00  0.2274273E+00  0.0000000E+00  0.0000000E+00
  0.6161619E+00  0.0000000E+00  0.0000000E+00 -0.5000000E+01 -0.5000000E+01  0.5313722E+00  0.2274273E+00  0.0000000E+00  0.0000000E+00
  0.6262630E+00  0.0000000E+00  0.0000000E+00 -0.5000000E+01 -0.5000000E+01  0.5313722E+00  0.2274273E+00  0.0000000E+00  0.0000000E+00
  0.6363640E+00  0.0000000E+00  0.0000000E+00 -0.5000000E+01 -0.5000000E+01  0.5313722E+00  0.2274273E+00  0.0000000E+00  0.0000000E+00
  0.6464650E+00  0.0000000E+00  0.0000000E+00 -0.5000000E+01 -0.5000000E+01  0.5313722E+00  0.2274273E+00  0.0000000E+00  0.0000000E+00
  0.6565660E+00  0.0000000E+00  0.0000000E+00 -0.5000000E+01 -0.5000000E+01  0.5313722E+00  0.2274273E+00  0.0000000E+00  0.0000000E+00
  0.6666670E+00  0.0000000E+00  0.0000000E+00 -0.5000000E+01 -0.5000000E+01  0.5313722E+00  0.2274273E+00  0.0000000E+00  0.0000000E+00
  0.6767681E+00  0.0000000E+00  0.0000000E+00 -0.5000000E+01 -0.5000000E+01  0.5313722E+00  0.2274273E+00  0.0000000E+00  0.0000000E+00
  0.6868691E+00  0.0000000E+00  0.0000000E+00 -0.5000000E+01 -0.5000000E+01  0.5313722E+00  0.2274273E+00  0.0000000E+00  0.0000000E+00
  0.6969701E+00  0.0000000E+00  0.0000000E+00 -0.5000000E+01 -0.5000000E+01  0.5313722E+00  0.2274273E+00  0.0000000E+00  0.0000000E+00
  0.7070711E+00  0.0000000E+00  0.0000000E+00 -0.5000000E+01 -0.5000000E+01  0.5313722E+00  0.2274273E+00  0.0000000E+00  0.0000000E+00
  0.7171721E+00  0.0000000E+00  0.0000000E+00 -0.5000000E+01 -0.5000000E+01  0.5313722E+00  0.2274273E+00  0.0000000E+00  0.0000000E+00
  0.7272732E+00  0.0000000E+00  0.0000000E+00 -0.5000000E+01 -0.5000000E+01  0.5313722E+00  0.2274273E+00  0.0000000E+00  0.0000000E+00
  0.7373742E+00  0.0000000E+00  0.0000000E+00 -0.5000000E+01 -0.5000000E+01  0.5313722E+00  0.2274273E+00  0.0000000E+00  0.0000000E+00
  0.7474752E+00  0.0000000E+00  0.0000000E+00 -0.5000000E+01 -0.5000000E+01  0.5313722E+00  0.2274273E+00  0.0000000E+00  0.0000000E+00
  0.7575762E+00  0.0000000E+00  0.0000000E+00 -0.5000000E+01 -0.5000000E+01  0.5313722E+00  0.2274273E+00  0.0000000E+00  0.0000000E+00
  0.7676772E+00  0.0000000E+00  0.0000000E+00 -0.5000000E+01 -0.5000000E+01  0.5313722E+00  0.2274273E+00  0.0000000E+00  0.0000000E+00
  0.7777783E+00  0.0000000E+00  0.0000000E+00 -0.5000000E+01 -0.5000000E+01  0.5313722E+00  0.2274273E+00  0.0000000E+00  0.0000000E+00
  0.7878793E+00  0.0000000E+00  0.0000000E+00 -0.5000000E+01 -0.5000000E+01  0.5313722E+00  0.2274273E+00  0.0000000E+00  0.0000000E+00
  0.7979803E+00  0.0000000E+00  0.0000000E+00 -0.5000000E+01 -0.5000000E+01  0.5313722E+00  0.2274273E+00  0.0000000E+00  0.0000000E+00
  0.8080813E+00  0.0000000E+00  0.0000000E+00 -0.5000000E+01 -0.5000000E+01  0.5313722E+00  0.2274273E+00  0.0000000E+00  0.0000000E+00
  0.8181823E+00  0.0000000E+00  0.0000000E+00 -0.5000000E+01 -0.5000000E+01  0.5313722E+00  0.2274273E+00  0.0000000E+00  0.0000000E+00
  0.8282834E+00  0.0000000E+00  0.0000000E+00 -0.5000000E+01 -0.5000000E+01  0.5313722E+00  0.2274273E+00  0.0000000E+00  0.0000000E+00
  0.8383844E+00  0.0000000E+00  0.0000000E+00 -0.5000000E+01 -0.5000000E+01  0.5313722E+00  0.2274273E+00  0.0000000E+00  0.0000000E+00
  0.8484854E+00  0.0000000E+00  0.0000000E+00 -0.5000000E+01 -0.5000000E+01  0.5313722E+00  0.2274273E+00  0.0000000E+00  0.0000000E+00
  0.8585864E+00  0.0000000E+00  0.0000000E+00 -0.5000000E+01 -0.5000000E+01  0.5313722E+00  0.2274273E+00  0.0000000E+00  0.0000000E+00
  0.8686875E+00  0.0000000E+00  0.0000000E+00 -0.5000000E+01 -0.5000000E+01  0.5313722E+00  0.2274273E+00  0.0000000E+00  0.0000000E+00
  0.8787885E+00  0.0000000E+00  0.0000000E+00 -0.5000000E+01 -0.5000000E+01  0.5313722E+00  0.2274273E+00  0.0000000E+00  0.0000000E+00
  0.8888895E+00  0.0000000E+00  0.0000000E+00 -0.5000000E+01 -0.5000000E+01  0.5313722E+00  0.2274273E+00  0.0000000E+00  0.0000000E+00
  0.8989905E+00  0.0000000E+00  0.0000000E+00 -0.5000000E+01 -0.5000000E+01  0.5313722E+00  0.2274273E+00  0.0000000E+00  0.0000000E+00
  0.9090915E+00  0.0000000E+00  0.0000000E+00 -0.5000000E+01 -0.5000000E+01  0.5313722E+00  0.2274273E+00  0.0000000E+00  0.0000000E+00
  0.9191926E+00  0.0000000E+00  0.0000000E+00 -0.5000000E+01 -0.5000000E+01  0.5313722E+00  0.2274273E+00  0.0000000E+00  0.0000000E+00
  0.9292936E+00  0.0000000E+00  0.0000000E+00 -0.5000000E+01 -0.5000000E+01  0.5313722E+00  0.2274273E+00  0.0000000E+00  0.0000000E+00
  0.9393946E+00  0.0000000E+00  0.0000000E+00 -0.5000000E+01 -0.5000000E+01  0.5313722E+00  0.2274273E+00  0.0000000E+00  0.0000000E+00
  0.9494956E+00  0.0000000E+00  0.0000000E+00 -0.5000000E+01 -0.5000000E+01  0.5313722E+00  0.2274273E+00  0.0000000E+00  0.0000000E+00
  0.9595966E+00  0.0000000E+00  0.0000000E+00 -0.5000000E+01 -0.5000000E+01  0.5313722E+00  0.2274273E+00  0.0000000E+00  0.0000000E+00
  0.9696977E+00  0.0000000E+00  0.0000000E+00 -0.5000000E+01 -0.5000000E+01  0.5313722E+00  0.2274273E+00  0.0000000E+00  0.0000000E+00
  0.9797987E+00  0.0000000E+00  0.0000000E+00 -0.5000000E+01 -0.5000000E+01  0.5313722E+00  0.2274273E+00  0.0000000E+00  0.0000000E+00
  0.9898997E+00  0.0000000E+00  0.0000000E+00 -0.5000000E+01 -0.5000000E+01  0.5313722E+00  0.2274273E+00  0.0000000E+00  0.0000000E+00
  0.1000001E+01  0.0000000E+00  0.5826218E-18 -0.5000942E+01 -0.5000942E+01  0.5313419E+00  0.2274143E+00  0.0000000E+00  0.0000000E+00
  0.0000000E+00  0.0000000E+00  0.5826219E-18 -0.5001598E+01 -0.5011699E+01  0.5309961E+00  0.2272663E+00  0.0000000E+00  0.0000000E+00
  0.1010101E-01  0.0000000E+00  0.5826219E-18 -0.5001599E+01 -0.5011700E+01  0.5309961E+00  0.2272663E+00  0.0000000E+00  0.0000000E+00
  0.2020202E-01  0.0000000E+00  0.5826219E-18 -0.5001600E+01 -0.5011701E+01  0.5309961E+00  0.2272663E+00  0.0000000E+00  0.0000000E+00
  0.3030303E-01  0.0000000E+00  0.5826219E-18 -0.5001601E+01 -0.5011702E+01  0.5309960E+00  0.2272663E+00  0.0000000E+00  0.0000000E+00
  0.4040404E-01  0.0000000E+00  0.5826219E-18 -0.5001603E+01 -0.5011704E+01  0.5309959E+00  0.2272663E+00  0.0000000E+00  0.0000000E+00
  0.5050505E-01  0.0000000E+00  0.5826219E-18 -0.5001606E+01 -0.5011707E+01  0.5309959E+00  0.2272662E+00  0.0000000E+00  0.0000000E+00
  0.6060606E-01  0.0000000E+00  0.5826219E-18 -0.5001609E+01 -0.5011710E+01  0.5309957E+00  0.2272662E+00  0.0000000E+00  0.0000000E+00
  0.7070707E-01  0.0000000E+00  0.5826219E-18 -0.5001613E+01 -0.5011714E+01  0.5309956E+00  0.2272661E+00  0.0000000E+00  0.0000000E+00
  0.8080808E-01  0.0000000E+00  0.5826219E-18 -0.5001618E+01 -0.5011719E+01  0.5309955E+00  0.2272661E+00  0.0000000E+00  0.0000000E+00
  0.9090909E-01  0.0000000E+00  0.5826219E-18 -0.5001623E+01 -0.5011724E+01  0.5309953E+00  0.2272660E+00  0.0000000E+00  0.0000000E+00
  0.1010101E+00  0.0000000E+00  0.5826219E-18 -0.5001628E+01 -0.5011729E+01  0.5309951E+00  0.2272659E+00  0.0000000E+00  0.0000000E+00
  0.1111111E+00  0.0000000E+00  0.5826219E-18 -0.5001634E+01 -0.5011735E+01  0.5309950E+00  0.2272658E+00  0.0000000E+00  0.0000000E+00
  0.1212121E+00  0.0000000E+00  0.5826219E-18 -0.5001641E+01 -0.5011742E+01  0.5309947E+00  0.2272658E+00  0.0000000E+00  0.0000000E+00
  0.1313131E+00  0.0000000E+00  0.5826219E-18 -0.5001647E+01 -0.5011748E+01  0.5309945E+00  0.2272657E+00  0.0000000E+00  0.0000000E+00
  0.1414142E+00  0.0000000E+00  0.5826219E-18 -0.5001655E+01 -0.5011756E+01  0.5309943E+00  0.2272656E+00  0.0000000E+00  0.0000000E+00
  0.1515152E+00  0.0000000E+00  0.5826219E-18 -0.5001663E+01 -0.5011764E+01  0.5309940E+00  0.2272654E+00  0.0000000E+00  0.0000000E+00
  0.1616162E+00  0.0000000E+00  0.5826219E-18 -0.5001671E+01 -0.5011772E+01  0.5309938E+00  0.2272653E+00  0.0000000E+00  0.0000000E+00
  0.1717172E+00  0.0000000E+00  0.5826219E-18 -0.5001679E+01 -0.5011780E+01  0.5309935E+00  0.2272652E+00  0.0000000E+00  0.0000000E+00
  0.1818182E+00  0.0000000E+00  0.5826219E-18 -0.5001688E+01 -0.5011789E+01  0.5309932E+00  0.2272651E+00  0.0000000E+00  0.0000000E+00
  0.1919192E+00  0.0000000E+00  0.5826219E-18 -0.5001697E+01 -0.5011798E+01  0.5309929E+00  0.2272650E+00  0.0000000E+00  0.0000000E+00
  0.2020202E+00  0.0000000E+00  0.5826219E-18 -0.5001706E+01 -0.5011807E+01  0.5309926E+00  0.2272649E+00  0.0000000E+00  0.0000000E+00
  0.2121212E+00  0.0000000E+00  0.5826219E-18 -0.5001715E+01 -0.5011816E+01  0.5309923E+00  0.2272647E+00  0.0000000E+00  0.0000000E+00
  0.2222222E+00  0.0000000E+00  0.5826219E-18 -0.5001725E+01 -0.5011826E+01  0.5309920E+00  0.2272646E+00  0.0000000E+00  0.0000000E+00
  0.2323232E+00  0.0000000E+00  0.5826219E-18 -0.5001734E+01 -0.5011835E+01  0.5309917E+00  0.2272645E+00  0.0000000E+00  0.0000000E+00
  0.2424242E+00  0.0000000E+00  0.5826219E-18 -0.5001744E+01 -0.5011845E+01  0.5309914E+00  0.2272643E+00  0.0000000E+00  0.0000000E+00
  0.2525252E+00  0.0000000E+00  0.5826219E-18 -0.5001754E+01 -0.5011855E+01  0.5309911E+00  0.2272642E+00  0.0000000E+00  0.0000000E+00
  0.2626262E+00  0.0000000E+00  0.5826219E-18 -0.5001764E+01 -0.5011865E+01  0.5309908E+00  0.2272641E+00  0.0000000E+00  0.0000000E+00
  0.2727273E+00  0.0000000E+00  0.5826219E-18 -0.5001773E+01 -0.5011874E+01  0.5309905E+00  0.2272639E+00  0.0000000E+00  0.0000000E+00
  0.2828283E+00  0.0000000E+00  0.5826219E-18 -0.5001783E+01 -0.5011884E+01  0.5309902E+00  0.2272638E+00  0.0000000E+00  0.0000000E+00
  0.2929293E+00  0.0000000E+00  0.5826219E-18 -0.5001792E+01 -0.5011893E+01  0.5309899E+00  0.2272637E+00  0.0000000E+00  0.0000000E+00
  0.3030303E+00  0.0000000E+00  0.5826219E-18 -0.5001801E+01 -0.5011902E+01  0.5309896E+00  0.2272635E+00  0.0000000E+00  0.0000000E+00
  0.3131313E+00  0.0000000E+00  0.5826219E-18 -0.5001810E+01 -0.5011911E+01  0.5309893E+00  0.2272634E+00  0.0000000E+00  0.0000000E+00
  0.3232324E+00  0.0000000E+00  0.5826219E-18 -0.5001819E+01 -0.5011920E+01  0.5309890E+00  0.2272633E+00  0.0000000E+00  0.0000000E+00
  0.3333334E+00  0.0000000E+00  0.5826219E-18 -0.5001828E+01 -0.5011929E+01  0.5309887E+00  0.2272632E+00  0.0000000E+00  0.0000000E+00
  0.3434344E+00  0.0000000E+00  0.5826219E-18 -0.5001836E+01 -0.5011937E+01  0.5309885E+00  0.2272631E+00  0.0000000E+00  0.0000000E+00
  0.3535354E+00  0.0000000E+00  0.5826219E-18 -0.5001843E+01 -0.5011944E+01  0.5309882E+00  0.2272630E+00  0.0000000E+00  0.0000000E+00
  0.3636364E+00  0.0000000E+00  0.5826219E-18 -0.5001851E+01 -0.5011952E+01  0.5309880E+00  0.2272629E+00  0.0000000E+00  0.0000000E+00
  0.3737375E+00  0.0000000E+00  0.5826219E-18 -0.5001858E+01 -0.5011959E+01  0.5309878E+00  0.2272628E+00  0.0000000E+00  0.0000000E+00
  0.3838385E+00  0.0000000E+00  0.5826219E-18 -0.5001864E+01 -0.5011965E+01  0.5309876E+00  0.2272627E+00  0.0000000E+00  0.0000000E+00
  0.3939395E+00  0.0000000E+00  0.5826219E-18 -0.5001870E+01 -0.5011971E+01  0.5309874E+00  0.2272626E+00  0.0000000E+00  0.0000000E+00
  0.4040405E+00  0.0000000E+00  0.5826219E-18 -0.5001875E+01 -0.5011976E+01  0.5309872E+00  0.2272625E+00  0.0000000E+00  0.0000000E+00
  0.4141415E+00  0.0000000E+00  0.5826219E-18 -0.5001880E+01 -0.5011981E+01  0.5309871E+00  0.2272625E+00  0.0000000E+00  0.0000000E+00
  0.4242426E+00  0.0000000E+00  0.5826219E-18 -0.5001884E+01 -0.5011985E+01  0.5309869E+00  0.2272624E+00  0.0000000E+00  0.0000000E+00
  0.4343436E+00  0.0000000E+00  0.5826219E-18 -0.5001888E+01 -0.5011989E+01  0.5309868E+00  0.2272624E+00  0.0000000E+00  0.0000000E+00
  0.4444446E+00  0.0000000E+00  0.5826219E-18 -0.5001891E+01 -0.5011992E+01  0.5309867E+00  0.2272623E+00  0.0000000E+00  0.0000000E+00
  0.4545456E+00  0.0000000E+00  0.5826219E-18 -0.5001893E+01 -0.5011994E+01  0.5309866E+00  0.2272623E+00  0.0000000E+00  0.0000000E+00
  0.4646466E+00  0.0000000E+00  0.5826219E-18 -0.5001895E+01 -0.5011996E+01  0.5309866E+00  0.2272623E+00  0.0000000E+00  0.0000000E+00
  0.4747477E+00  0.0000000E+00  0.5826219E-18 -0.5001896E+01 -0.5011997E+01  0.5309865E+00  0.2272622E+00  0.0000000E+00  0.0000000E+00
  0.4848487E+00  0.0000000E+00  0.5826219E-18 -0.5001896E+01 -0.5011997E+01  0.5309865E+00  0.2272622E+00  0.0000000E+00  0.0000000E+00
  0.4949497E+00  0.0000000E+00  0.5826219E-18 -0.5001896E+01 -0.5011997E+01  0.5309865E+00  0.2272622E+00  0.0000000E+00  0.0000000E+00
  0.5050507E+00  0.0000000E+00  0.5826219E-18 -0.5001895E+01 -0.5011996E+01  0.5309866E+00  0.2272623E+00  0.0000000E+00  0.0000000E+00
  0.5151517E+00  0.0000000E+00  0.5826219E-18 -0.5001893E+01 -0.5011994E+01  0.5309866E+00  0.2272623E+00  0.0000000E+00  0.0000000E+00
  0.5252528E+00  0.0000000E+00  0.5826219E-18 -0.5001891E+01 -0.5011992E+01  0.5309867E+00  0.2272623E+00  0.0000000E+00  0.0000000E+00
  0.5353538E+00  0.0000000E+00  0.5826219E-18 -0.5001888E+01 -0.5011989E+01  0.5309868E+00  0.2272624E+00  0.0000000E+00  0.0000000E+00
  0.5454548E+00  0.0000000E+00  0.5826219E-18 -0.5001884E+01 -0.5011985E+01  0.5309869E+00  0.2272624E+00  0.0000000E+00  0.0000000E+00
  0.5555558E+00  0.0000000E+00  0.5826219E-18 -0.5001880E+01 -0.5011981E+01  0.5309871E+00  0.2272625E+00  0.0000000E+00  0.0000000E+00
  0.5656568E+00  0.0000000E+00  0.5826219E-18 -0.5001875E+01 -0.5011976E+01  0.5309872E+00  0.2272625E+00  0.0000000E+00  0.0000000E+00
  0.5757579E+00  0.0000000E+00  0.5826219E-18 -0.5001870E+01 -0.5011971E+01  0.5309874E+00  0.2272626E+00  0.0000000E+00  0.0000000E+00
  0.5858589E+00  0.0000000E+00  0.5826219E-18 -0.5001864E+01 -0.5011965E+01  0.5309876E+00  0.2272627E+00  0.0000000E+00  0.0000000E+00
  0.5959599E+00  0.0000000E+00  0.5826219E-18 -0.5001857E+01 -0.5011958E+01  0.5309878E+00  0.2272628E+00  0.0000000E+00  0.0000000E+00
  0.6060609E+00  0.0000000E+00  0.5826219E-18 -0.5001850E+01 -0.5011951E+01  0.5309880E+00  0.2272629E+00  0.0000000E+00  0.0000000E+00
  0.6161619E+00  0.0000000E+00  0.5826219E-18 -0.5001842E+01 -0.5011943E+01  0.5309883E+00  0.2272630E+00  0.0000000E+00  0.0000000E+00
  0.6262630E+00  0.0000000E+00  0.5826219E-18 -0.5001834E+01 -0.5011935E+01  0.5309885E+00  0.2272631E+00  0.0000000E+00  0.0000000E+00
  0.6363640E+00  0.0000000E+00  0.5826219E-18 -0.5001826E+01 -0.5011927E+01  0.5309888E+00  0.2272632E+00  0.0000000E+00  0.0000000E+00
  0.6464650E+00  0.0000000E+00  0.5826219E-18 -0.5001817E+01 -0.5011918E+01  0.5309891E+00  0.2272633E+00  0.0000000E+00  0.0000000E+00
  0.6565660E+00  0.0000000E+00  0.5826219E-18 -0.5001807E+01 -0.5011908E+01  0.5309894E+00  0.2272635E+00  0.0000000E+00  0.0000000E+00
  0.6666670E+00  0.0000000E+00  0.5826219E-18 -0.5001798E+01 -0.5011899E+01  0.5309897E+00  0.2272636E+00  0.0000000E+00  0.0000000E+00
  0.6767681E+00  0.0000000E+00  0.5826219E-18 -0.5001788E+01 -0.5011889E+01  0.5309900E+00  0.2272637E+00  0.0000000E+00  0.0000000E+00
  0.6868691E+00  0.0000000E+00  0.5826219E-18 -0.5001777E+01 -0.5011878E+01  0.5309904E+00  0.2272639E+00  0.0000000E+00  0.0000000E+00
  0.6969701E+00  0.0000000E+00  0.5826219E-18 -0.5001767E+01 -0.5011868E+01  0.5309907E+00  0.2272640E+00  0.0000000E+00  0.0000000E+00
  0.7070711E+00  0.0000000E+00  0.5826219E-18 -0.5001756E+01 -0.5011857E+01  0.5309910E+00  0.2272642E+00  0.0000000E+00  0.0000000E+00
  0.7171721E+00  0.0000000E+00  0.5826219E-18 -0.5001745E+01 -0.5011846E+01  0.5309914E+00  0.2272643E+00  0.0000000E+00  0.0000000E+00
  0.7272732E+00  0.0000000E+00  0.5826219E-18 -0.5001735E+01 -0.5011836E+01  0.5309917E+00  0.2272645E+00  0.0000000E+00  0.0000000E+00
  0.7373742E+00  0.0000000E+00  0.5826219E-18 -0.5001724E+01 -0.5011825E+01  0.5309921E+00  0.2272646E+00  0.0000000E+00  0.0000000E+00
  0.7474752E+00  0.0000000E+00  0.5826219E-18 -0.5001713E+01 -0.5011814E+01  0.5309924E+00  0.2272648E+00  0.0000000E+00  0.0000000E+00
  0.7575762E+00  0.0000000E+00  0.5826219E-18 -0.5001702E+01 -0.5011803E+01  0.5309928E+00  0.2272649E+00  0.0000000E+00  0.0000000E+00
  0.7676772E+00  0.0000000E+00  0.5826219E-18 -0.5001691E+01 -0.5011792E+01  0.5309931E+00  0.2272651E+00  0.0000000E+00  0.0000000E+00
  0.7777783E+00  0.0000000E+00  0.5826219E-18 -0.5001680E+01 -0.5011781E+01  0.5309935E+00  0.2272652E+00  0.0000000E+00  0.0000000E+00
  0.7878793E+00  0.0000000E+00  0.5826219E-18 -0.5001670E+01 -0.5011771E+01  0.5309938E+00  0.2272653E+00  0.0000000E+00  0.0000000E+00
  0.7979803E+00  0.0000000E+00  0.5826219E-18 -0.5001660E+01 -0.5011761E+01  0.5309941E+00  0.2272655E+00  0.0000000E+00  0.0000000E+00
  0.8080813E+00  0.0000000E+00  0.5826219E-18 -0.5001650E+01 -0.5011751E+01  0.5309945E+00  0.2272656E+00  0.0000000E+00  0.0000000E+00
  0.8181823E+00  0.0000000E+00  0.5826219E-18 -0.5001640E+01 -0.5011741E+01  0.5309948E+00  0.2272658E+00  0.0000000E+00  0.0000000E+00
  0.8282834E+00  0.0000000E+00  0.5826219E-18 -0.5001630E+01 -0.5011731E+01  0.5309951E+00  0.2272659E+00  0.0000000E+00  0.0000000E+00
  0.8383844E+00  0.0000000E+00  0.5826219E-18 -0.5001621E+01 -0.5011722E+01  0.5309954E+00  0.2272660E+00  0.0000000E+00  0.0000000E+00
  0.8484854E+00  0.0000000E+00  0.5826219E-18 -0.5001613E+01 -0.5011714E+01  0.5309956E+00  0.2272661E+00  0.0000000E+00  0.0000000E+00
  0.8585864E+00  0.0000000E+00  0.5826219E-18 -0.5001604E+01 -0.5011705E+01  0.5309959E+00  0.2272662E+00  0.0000000E+00  0.0000000E+00
  0.8686875E+00  0.0000000E+00  0.5826219E-18 -0.5001597E+01 -0.5011698E+01  0.5309962E+00  0.2272664E+00  0.0000000E+00  0.0000000E+00
  0.8787885E+00  0.0000000E+00  0.5826219E-18 -0.5001589E+01 -0.5011690E+01  0.5309964E+00  0.2272665E+00  0.0000000E+00  0.0000000E+00
  0.8888895E+00  0.0000000E+00  0.5826219E-18 -0.5001583E+01 -0.5011684E+01  0.5309966E+00  0.2272665E+00  0.0000000E+00  0.0000000E+00
  0.8989905E+00  0.0000000E+00  0.5826219E-18 -0.5001577E+01 -0.5011678E+01  0.5309968E+00  0.2272666E+00  0.0000000E+00  0.0000000E+00
  0.9090915E+00  0.0000000E+00  0.5826219E-18 -0.5001572E+01 -0.5011673E+01  0.5309970E+00  0.2272667E+00  0.0000000E+00  0.0000000E+00
  0.9191926E+00  0.0000000E+00  0.5826219E-18 -0.5001567E+01 -0.5011668E+01  0.5309971E+00  0.2272668E+00  0.0000000E+00  0.0000000E+00
  0.9292936E+00  0.0000000E+00  0.5826219E-18 -0.5001564E+01 -0.5011665E+01  0.5309972E+00  0.2272668E+00  0.0000000E+00  0.0000000E+00
  0.9393946E+00  0.0000000E+00  0.5826219E-18 -0.5001562E+01 -0.5011663E+01  0.5309973E+00  0.2272668E+00  0.0000000E+00  0.0000000E+00
  0.9494956E+00  0.0000000E+00  0.5826219E-18 -0.5001561E+01 -0.5011662E+01  0.5309973E+00  0.2272668E+00  0.0000000E+00  0.0000000E+00
  0.9595966E+00  0.0000000E+00  0.5826219E-18 -0.5001565E+01 -0.5011666E+01  0.5309972E+00  0.2272668E+00  0.0000000E+00  0.0000000E+00
  0.9696977E+00  0.0000000E+00  0.5826219E-18 -0.5001575E+01 -0.5011676E+01  0.5309969E+00  0.2272667E+00  0.0000000E+00  0.0000000E+00
  0.9797987E+00  0.0000000E+00  0.5826219E-18 -0.5001600E+01 -0.5011701E+01  0.5309960E+00  0.2272663E+00  0.0000000E+00  0.0000000E+00
  0.9898997E+00  0.0000000E+00  0.5826219E-18 -0.5001671E+01 -0.5011772E+01  0.5309938E+00  0.2272653E+00  0.0000000E+00  0.0000000E+00
  0.1000001E+01  0.0000000E+00  0.1491512E-15 -0.5001885E+01 -0.5011986E+01  0.5309869E+00  0.2272624E+00  0.0000000E+00  0.0000000E+00
  0.0000000E+00  0.0000000E+00  0.1491512E-15 -0.5003209E+01 -0.5023411E+01  0.5306207E+00  0.2271056E+00  0.0000000E+00  0.0000000E+00
  0.1010101E-01  0.0000000E+00  0.1491512E-15 -0.5003210E+01 -0.5023412E+01  0.5306206E+00  0.2271056E+00  0.0000000E+00  0.0000000E+00
  0.2020202E-01  0.0000000E+00  0.1491512E-15 -0.5003211E+01 -0.5023413E+01  0.5306206E+00  0.2271056E+00  0.0000000E+00  0.0000000E+00
  0.3030303E-01  0.0000000E+00  0.1491512E-15 -0.5003215E+01 -0.5023417E+01  0.5306205E+00  0.2271056E+00  0.0000000E+00  0.0000000E+00
  0.4040404E-01  0.0000000E+00  0.1491512E-15 -0.5003219E+01 -0.5023421E+01  0.5306204E+00  0.2271055E+00  0.0000000E+00  0.0000000E+00
  0.5050505E-01  0.0000000E+00  0.1491512E-15 -0.5003224E+01 -0.5023426E+01  0.5306202E+00  0.2271054E+00  0.0000000E+00  0.0000000E+00
  0.6060606E-01  0.0000000E+00  0.1491512E-15 -0.5003231E+01 -0.5023433E+01  0.5306200E+00  0.2271053E+00  0.0000000E+00  0.0000000E+00
  0.7070707E-01  0.0000000E+00  0.1491512E-15 -0.5003239E+01 -0.5023441E+01  0.5306197E+00  0.2271052E+00  0.0000000E+00  0.0000000E+00
  0.8080808E-01  0.0000000E+00  0.1491512E-15 -0.5003248E+01 -0.5023450E+01  0.5306194E+00  0.2271051E+00  0.0000000E+00  0.0000000E+00
  0.9090909E-01  0.0000000E+00  0.1491512E-15 -0.5003258E+01 -0.5023460E+01  0.5306191E+00  0.2271050E+00  0.0000000E+00  0.0000000E+00
  0.1010101E+00  0.0000000E+00  0.1491512E-15 -0.5003269E+01 -0.5023471E+01  0.5306188E+00  0.2271048E+00  0.0000000E+00  0.0000000E+00
  0.1111111E+00  0.0000000E+00  0.1491512E-15 -0.5003281E+01 -0.5023483E+01  0.5306184E+00  0.2271047E+00  0.0000000E+00  0.0000000E+00
  0.1212121E+00  0.0000000E+00  0.1491512E-15 -0.5003294E+01 -0.5023496E+01  0.5306179E+00  0.2271045E+00  0.0000000E+00  0.0000000E+00
  0.1313131E+00  0.0000000E+00  0.1491512E-15 -0.5003308E+01 -0.5023510E+01  0.5306175E+00  0.2271043E+00  0.0000000E+00  0.0000000E+00
  0.1414142E+00  0.0000000E+00  0.1491512E-15 -0.5003323E+01 -0.5023525E+01  0.5306170E+00  0.2271041E+00  0.0000000E+00  0.0000000E+00
  0.1515152E+00  0.0000000E+00  0.1491512E-15 -0.5003338E+01 -0.5023540E+01  0.5306165E+00  0.2271039E+00  0.0000000E+00  0.0000000E+00
  0.1616162E+00  0.0000000E+00  0.1491512E-15 -0.5003354E+01 -0.5023556E+01  0.5306160E+00  0.2271037E+00  0.0000000E+00  0.0000000E+00
  0.1717172E+00  0.0000000E+00  0.1491512E-15 -0.5003371E+01 -0.5023573E+01  0.5306155E+00  0.2271034E+00  0.0000000E+00  0.0000000E+00
  0.1818182E+00  0.0000000E+00  0.1491512E-15 -0.5003389E+01 -0.5023591E+01  0.5306149E+00  0.2271032E+00  0.0000000E+00  0.0000000E+00