title = "dataset feddes"
variables = "x", "y", "z", "vx", "vy", "vz"
zone t = "velocities, solution time =  1.000E+01 days        " i =   99, j =   99, k =    1,  f=point
 -0.5050505E-02  0.0000000E+00 -0.5050505E-02 -0.8472549E-14  0.0000000E+00 -0.1302390E-09
 -0.5050505E-02  0.0000000E+00 -0.5050505E-02 -0.6125728E-14  0.0000000E+00 -0.1302536E-09
 -0.5050505E-02  0.0000000E+00 -0.5050505E-02 -0.3186578E-14  0.0000000E+00 -0.1302630E-09
 -0.5050505E-02  0.0000000E+00 -0.5050505E-02 -0.2541765E-14  0.0000000E+00 -0.1302687E-09
 -0.5050505E-02  0.0000000E+00 -0.5050505E-02 -0.2189367E-14  0.0000000E+00 -0.1302734E-09
 -0.5050505E-02  0.0000000E+00 -0.5050505E-02 -0.1911947E-14  0.0000000E+00 -0.1302775E-09
 -0.5050504E-02  0.0000000E+00 -0.5050505E-02 -0.1694510E-14  0.0000000E+00 -0.1302811E-09
 -0.5050501E-02  0.0000000E+00 -0.5050505E-02 -0.1514562E-14  0.0000000E+00 -0.1302843E-09
 -0.5050495E-02  0.0000000E+00 -0.5050505E-02 -0.1364605E-14  0.0000000E+00 -0.1302872E-09
 -0.5050482E-02  0.0000000E+00 -0.5050505E-02 -0.1259636E-14  0.0000000E+00 -0.1302898E-09
 -0.5050449E-02  0.0000000E+00 -0.5050505E-02 -0.1154666E-14  0.0000000E+00 -0.1302922E-09
 -0.5050376E-02  0.0000000E+00 -0.5050505E-02 -0.1064692E-14  0.0000000E+00 -0.1302945E-09
 -0.5050299E-02  0.0000000E+00 -0.5050505E-02 -0.9972116E-15  0.0000000E+00 -0.1302965E-09
 -0.5050178E-02  0.0000000E+00 -0.5050505E-02 -0.9372289E-15  0.0000000E+00 -0.1302985E-09
 -0.5050018E-02  0.0000000E+00 -0.5050505E-02 -0.8772463E-15  0.0000000E+00 -0.1303003E-09
 -0.5049710E-02  0.0000000E+00 -0.5050505E-02 -0.8172636E-15  0.0000000E+00 -0.1303020E-09
 -0.5049253E-02  0.0000000E+00 -0.5050505E-02 -0.7647788E-15  0.0000000E+00 -0.1303036E-09
 -0.5048636E-02  0.0000000E+00 -0.5050505E-02 -0.7197918E-15  0.0000000E+00 -0.1303050E-09
 -0.5047442E-02  0.0000000E+00 -0.5050505E-02 -0.6673070E-15  0.0000000E+00 -0.1303064E-09
 -0.5045727E-02  0.0000000E+00 -0.5050505E-02 -0.6223200E-15  0.0000000E+00 -0.1303077E-09
 -0.5043261E-02  0.0000000E+00 -0.5050505E-02 -0.5998265E-15  0.0000000E+00 -0.1303089E-09
 -0.5038714E-02  0.0000000E+00 -0.5050505E-02 -0.5473417E-15  0.0000000E+00 -0.1303101E-09
 -0.5032318E-02  0.0000000E+00 -0.5050505E-02 -0.5173504E-15  0.0000000E+00 -0.1303111E-09
 -0.5022454E-02  0.0000000E+00 -0.5050505E-02 -0.4873590E-15  0.0000000E+00 -0.1303122E-09
 -0.5012589E-02  0.0000000E+00 -0.5050505E-02 -0.4498699E-15  0.0000000E+00 -0.1303131E-09
 -0.5002725E-02  0.0000000E+00 -0.5050505E-02 -0.4273764E-15  0.0000000E+00 -0.1303140E-09
 -0.4992860E-02  0.0000000E+00 -0.5050505E-02 -0.4048829E-15  0.0000000E+00 -0.1303148E-09
 -0.4976523E-02  0.0000000E+00 -0.5050505E-02 -0.3748916E-15  0.0000000E+00 -0.1303156E-09
 -0.4956794E-02  0.0000000E+00 -0.5050505E-02 -0.3449002E-15  0.0000000E+00 -0.1303163E-09
 -0.4937066E-02  0.0000000E+00 -0.5050505E-02 -0.3224067E-15  0.0000000E+00 -0.1303170E-09
 -0.4906239E-02  0.0000000E+00 -0.5050505E-02 -0.2999133E-15  0.0000000E+00 -0.1303176E-09
 -0.4866782E-02  0.0000000E+00 -0.5050505E-02 -0.2849176E-15  0.0000000E+00 -0.1303182E-09
 -0.4827325E-02  0.0000000E+00 -0.5050505E-02 -0.2624241E-15  0.0000000E+00 -0.1303187E-09
 -0.4769372E-02  0.0000000E+00 -0.5050505E-02 -0.2549263E-15  0.0000000E+00 -0.1303192E-09
 -0.4690458E-02  0.0000000E+00 -0.5050505E-02 -0.2249349E-15  0.0000000E+00 -0.1303197E-09
 -0.4611543E-02  0.0000000E+00 -0.5050505E-02 -0.2099393E-15  0.0000000E+00 -0.1303202E-09
 -0.4503035E-02  0.0000000E+00 -0.5050505E-02 -0.2024414E-15  0.0000000E+00 -0.1303206E-09
 -0.4345206E-02  0.0000000E+00 -0.5050505E-02 -0.1724501E-15  0.0000000E+00 -0.1303209E-09
 -0.4187378E-02  0.0000000E+00 -0.5050505E-02 -0.1574545E-15  0.0000000E+00 -0.1303213E-09
 -0.3985156E-02  0.0000000E+00 -0.5050505E-02 -0.1349610E-15  0.0000000E+00 -0.1303216E-09
 -0.3669499E-02  0.0000000E+00 -0.5050505E-02 -0.8247614E-16  0.0000000E+00 -0.1303218E-09
 -0.3353842E-02  0.0000000E+00 -0.5050505E-02 -0.7497831E-17  0.0000000E+00 -0.1303219E-09
 -0.2978990E-02  0.0000000E+00 -0.5050505E-02  0.9747181E-16  0.0000000E+00 -0.1303218E-09
 -0.2347676E-02  0.0000000E+00 -0.5050505E-02  0.2324328E-15  0.0000000E+00 -0.1303214E-09
 -0.1716362E-02  0.0000000E+00 -0.5050505E-02  0.3224067E-15  0.0000000E+00 -0.1303209E-09
 -0.1025842E-02  0.0000000E+00 -0.5050505E-02  0.2774198E-15  0.0000000E+00 -0.1303203E-09
  0.2367855E-03  0.0000000E+00 -0.5050505E-02 -0.6073243E-15  0.0000000E+00 -0.1303206E-09
  0.1499413E-02  0.0000000E+00 -0.5050505E-02 -0.9747181E-15  0.0000000E+00 -0.1303222E-09
  0.2762042E-02  0.0000000E+00 -0.5050505E-02 -0.1012207E-14  0.0000000E+00 -0.1303242E-09
 -0.5050505E-02  0.0000000E+00 -0.5050505E-02  0.1574545E-15  0.0000000E+00 -0.1303250E-09
 -0.5050505E-02  0.0000000E+00 -0.5050505E-02  0.8472549E-15  0.0000000E+00 -0.1303240E-09
 -0.5050505E-02  0.0000000E+00 -0.5050505E-02  0.5323460E-15  0.0000000E+00 -0.1303227E-09
 -0.5050505E-02  0.0000000E+00 -0.5050505E-02 -0.4648655E-15  0.0000000E+00 -0.1303226E-09
 -0.5050505E-02  0.0000000E+00 -0.5050505E-02 -0.8247614E-15  0.0000000E+00 -0.1303239E-09
 -0.5050505E-02  0.0000000E+00 -0.5050505E-02 -0.3074111E-15  0.0000000E+00 -0.1303250E-09
 -0.5050505E-02  0.0000000E+00 -0.5050505E-02  0.2999133E-16  0.0000000E+00 -0.1303253E-09
 -0.5050504E-02  0.0000000E+00 -0.5050505E-02 -0.1724501E-15  0.0000000E+00 -0.1303254E-09
 -0.5050501E-02  0.0000000E+00 -0.5050505E-02 -0.3598959E-15  0.0000000E+00 -0.1303260E-09
 -0.5050495E-02  0.0000000E+00 -0.5050505E-02 -0.4723634E-15  0.0000000E+00 -0.1303268E-09
 -0.5050482E-02  0.0000000E+00 -0.5050505E-02 -0.5473417E-15  0.0000000E+00 -0.1303278E-09
 -0.5050449E-02  0.0000000E+00 -0.5050505E-02 -0.6148222E-15  0.0000000E+00 -0.1303290E-09
 -0.5050376E-02  0.0000000E+00 -0.5050505E-02 -0.6673070E-15  0.0000000E+00 -0.1303303E-09
 -0.5050299E-02  0.0000000E+00 -0.5050505E-02 -0.7347875E-15  0.0000000E+00 -0.1303317E-09
 -0.5050178E-02  0.0000000E+00 -0.5050505E-02 -0.8022680E-15  0.0000000E+00 -0.1303332E-09
 -0.5050018E-02  0.0000000E+00 -0.5050505E-02 -0.8697484E-15  0.0000000E+00 -0.1303349E-09
 -0.5049710E-02  0.0000000E+00 -0.5050505E-02 -0.9522246E-15  0.0000000E+00 -0.1303367E-09
 -0.5049253E-02  0.0000000E+00 -0.5050505E-02 -0.1057194E-14  0.0000000E+00 -0.1303387E-09
 -0.5048636E-02  0.0000000E+00 -0.5050505E-02 -0.1147168E-14  0.0000000E+00 -0.1303409E-09
 -0.5047442E-02  0.0000000E+00 -0.5050505E-02 -0.1274631E-14  0.0000000E+00 -0.1303433E-09
 -0.5045727E-02  0.0000000E+00 -0.5050505E-02 -0.1409592E-14  0.0000000E+00 -0.1303460E-09
 -0.5043261E-02  0.0000000E+00 -0.5050505E-02 -0.1567047E-14  0.0000000E+00 -0.1303490E-09
 -0.5038714E-02  0.0000000E+00 -0.5050505E-02 -0.1731999E-14  0.0000000E+00 -0.1303523E-09
 -0.5032318E-02  0.0000000E+00 -0.5050505E-02 -0.1926943E-14  0.0000000E+00 -0.1303560E-09
 -0.5022454E-02  0.0000000E+00 -0.5050505E-02 -0.2159375E-14  0.0000000E+00 -0.1303600E-09
 -0.5012589E-02  0.0000000E+00 -0.5050505E-02 -0.2406804E-14  0.0000000E+00 -0.1303646E-09
 -0.5002725E-02  0.0000000E+00 -0.5050505E-02 -0.2714215E-14  0.0000000E+00 -0.1303697E-09
 -0.4992860E-02  0.0000000E+00 -0.5050505E-02 -0.3051617E-14  0.0000000E+00 -0.1303755E-09
 -0.4976523E-02  0.0000000E+00 -0.5050505E-02 -0.3449002E-14  0.0000000E+00 -0.1303820E-09
 -0.4956794E-02  0.0000000E+00 -0.5050505E-02 -0.3928864E-14  0.0000000E+00 -0.1303894E-09
 -0.4937066E-02  0.0000000E+00 -0.5050505E-02 -0.4483703E-14  0.0000000E+00 -0.1303978E-09
 -0.4906239E-02  0.0000000E+00 -0.5050505E-02 -0.5166006E-14  0.0000000E+00 -0.1304074E-09
 -0.4866782E-02  0.0000000E+00 -0.5050505E-02 -0.5975772E-14  0.0000000E+00 -0.1304186E-09
 -0.4827325E-02  0.0000000E+00 -0.5050505E-02 -0.7002974E-14  0.0000000E+00 -0.1304316E-09
 -0.4769372E-02  0.0000000E+00 -0.5050505E-02 -0.8285104E-14  0.0000000E+00 -0.1304468E-09
 -0.4690458E-02  0.0000000E+00 -0.5050505E-02 -0.9889640E-14  0.0000000E+00 -0.1304650E-09
 -0.4611543E-02  0.0000000E+00 -0.5050505E-02 -0.1201902E-13  0.0000000E+00 -0.1304869E-09
 -0.4503035E-02  0.0000000E+00 -0.5050505E-02 -0.1483071E-13  0.0000000E+00 -0.1305138E-09
 -0.4345206E-02  0.0000000E+00 -0.5050505E-02 -0.1866960E-13  0.0000000E+00 -0.1305473E-09
 -0.4187378E-02  0.0000000E+00 -0.5050505E-02 -0.2404555E-13  0.0000000E+00 -0.1305900E-09
 -0.3985156E-02  0.0000000E+00 -0.5050505E-02 -0.3185829E-13  0.0000000E+00 -0.1306459E-09
 -0.3669499E-02  0.0000000E+00 -0.5050505E-02 -0.4366737E-13  0.0000000E+00 -0.1307214E-09
 -0.3353842E-02  0.0000000E+00 -0.5050505E-02 -0.6243444E-13  0.0000000E+00 -0.1308275E-09
 -0.2978990E-02  0.0000000E+00 -0.5050505E-02 -0.9409778E-13  0.0000000E+00 -0.1309841E-09
 -0.2347676E-02  0.0000000E+00 -0.5050505E-02 -0.1516661E-12  0.0000000E+00 -0.1312298E-09
 -0.1716362E-02  0.0000000E+00 -0.5050505E-02 -0.2664504E-12  0.0000000E+00 -0.1316479E-09
 -0.1025842E-02  0.0000000E+00 -0.5050505E-02 -0.5221040E-12  0.0000000E+00 -0.1324365E-09
  0.2367855E-03  0.0000000E+00 -0.5050505E-02 -0.1167135E-11  0.0000000E+00 -0.1341257E-09
  0.1499413E-02  0.0000000E+00 -0.5050505E-02 -0.3020029E-11  0.0000000E+00 -0.1383129E-09
  0.5287294E-02  0.0000000E+00 -0.5050505E-02 -0.4901066E-10  0.0000000E+00 -0.1106186E-09
 -0.5050505E-02  0.0000000E+00 -0.5050505E-02 -0.2046878E-13  0.0000000E+00 -0.1300499E-09
 -0.5050505E-02  0.0000000E+00 -0.5050505E-02 -0.1644442E-13  0.0000000E+00 -0.1300577E-09
 -0.5050505E-02  0.0000000E+00 -0.5050505E-02 -0.8741077E-14  0.0000000E+00 -0.1300643E-09
 -0.5050505E-02  0.0000000E+00 -0.5050505E-02 -0.7179212E-14  0.0000000E+00 -0.1300688E-09
 -0.5050505E-02  0.0000000E+00 -0.5050505E-02 -0.6297459E-14  0.0000000E+00 -0.1300728E-09
 -0.5050505E-02  0.0000000E+00 -0.5050505E-02 -0.5580153E-14  0.0000000E+00 -0.1300765E-09
 -0.5050504E-02  0.0000000E+00 -0.5050505E-02 -0.4967564E-14  0.0000000E+00 -0.1300799E-09
 -0.5050501E-02  0.0000000E+00 -0.5050505E-02 -0.4467020E-14  0.0000000E+00 -0.1300829E-09
 -0.5050495E-02  0.0000000E+00 -0.5050505E-02 -0.4048659E-14  0.0000000E+00 -0.1300857E-09
 -0.5050482E-02  0.0000000E+00 -0.5050505E-02 -0.3727473E-14  0.0000000E+00 -0.1300882E-09
 -0.5050449E-02  0.0000000E+00 -0.5050505E-02 -0.3421200E-14  0.0000000E+00 -0.1300906E-09
 -0.5050376E-02  0.0000000E+00 -0.5050505E-02 -0.3167200E-14  0.0000000E+00 -0.1300927E-09
 -0.5050299E-02  0.0000000E+00 -0.5050505E-02 -0.2972973E-14  0.0000000E+00 -0.1300948E-09
 -0.5050178E-02  0.0000000E+00 -0.5050505E-02 -0.2778788E-14  0.0000000E+00 -0.1300967E-09
 -0.5050018E-02  0.0000000E+00 -0.5050505E-02 -0.2606969E-14  0.0000000E+00 -0.1300984E-09
 -0.5049710E-02  0.0000000E+00 -0.5050505E-02 -0.2435151E-14  0.0000000E+00 -0.1301001E-09
 -0.5049253E-02  0.0000000E+00 -0.5050505E-02 -0.2285742E-14  0.0000000E+00 -0.1301017E-09
 -0.5048636E-02  0.0000000E+00 -0.5050505E-02 -0.2128920E-14  0.0000000E+00 -0.1301031E-09
 -0.5047442E-02  0.0000000E+00 -0.5050505E-02 -0.1986966E-14  0.0000000E+00 -0.1301045E-09
 -0.5045727E-02  0.0000000E+00 -0.5050505E-02 -0.1874878E-14  0.0000000E+00 -0.1301057E-09
 -0.5043261E-02  0.0000000E+00 -0.5050505E-02 -0.1755461E-14  0.0000000E+00 -0.1301069E-09
 -0.5038714E-02  0.0000000E+00 -0.5050505E-02 -0.1643330E-14  0.0000000E+00 -0.1301080E-09
 -0.5032318E-02  0.0000000E+00 -0.5050505E-02 -0.1538782E-14  0.0000000E+00 -0.1301091E-09
 -0.5022454E-02  0.0000000E+00 -0.5050505E-02 -0.1449145E-14  0.0000000E+00 -0.1301101E-09
 -0.5012589E-02  0.0000000E+00 -0.5050505E-02 -0.1352010E-14  0.0000000E+00 -0.1301110E-09
 -0.5002725E-02  0.0000000E+00 -0.5050505E-02 -0.1269871E-14  0.0000000E+00 -0.1301119E-09
 -0.4992860E-02  0.0000000E+00 -0.5050505E-02 -0.1195187E-14  0.0000000E+00 -0.1301127E-09
 -0.4976523E-02  0.0000000E+00 -0.5050505E-02 -0.1105551E-14  0.0000000E+00 -0.1301134E-09
 -0.4956794E-02  0.0000000E+00 -0.5050505E-02 -0.1030825E-14  0.0000000E+00 -0.1301141E-09
 -0.4937066E-02  0.0000000E+00 -0.5050505E-02 -0.9635972E-15  0.0000000E+00 -0.1301148E-09
 -0.4906239E-02  0.0000000E+00 -0.5050505E-02 -0.8963695E-15  0.0000000E+00 -0.1301154E-09
 -0.4866782E-02  0.0000000E+00 -0.5050505E-02 -0.8440953E-15  0.0000000E+00 -0.1301160E-09
 -0.4827325E-02  0.0000000E+00 -0.5050505E-02 -0.7843233E-15  0.0000000E+00 -0.1301165E-09
 -0.4769372E-02  0.0000000E+00 -0.5050505E-02 -0.7395470E-15  0.0000000E+00 -0.1301170E-09
 -0.4690458E-02  0.0000000E+00 -0.5050505E-02 -0.6797328E-15  0.0000000E+00 -0.1301175E-09
 -0.4611543E-02  0.0000000E+00 -0.5050505E-02 -0.6349144E-15  0.0000000E+00 -0.1301179E-09
 -0.4503035E-02  0.0000000E+00 -0.5050505E-02 -0.5901380E-15  0.0000000E+00 -0.1301183E-09
 -0.4345206E-02  0.0000000E+00 -0.5050505E-02 -0.5303239E-15  0.0000000E+00 -0.1301187E-09
 -0.4187378E-02  0.0000000E+00 -0.5050505E-02 -0.4705940E-15  0.0000000E+00 -0.1301191E-09
 -0.3985156E-02  0.0000000E+00 -0.5050505E-02 -0.3884549E-15  0.0000000E+00 -0.1301193E-09
 -0.3669499E-02  0.0000000E+00 -0.5050505E-02 -0.2539573E-15  0.0000000E+00 -0.1301195E-09
 -0.3353842E-02  0.0000000E+00 -0.5050505E-02 -0.4477635E-16  0.0000000E+00 -0.1301197E-09
 -0.2978990E-02  0.0000000E+00 -0.5050505E-02  0.2987758E-15  0.0000000E+00 -0.1301196E-09
 -0.2347676E-02  0.0000000E+00 -0.5050505E-02  0.7543320E-15  0.0000000E+00 -0.1301192E-09
 -0.1716362E-02  0.0000000E+00 -0.5050505E-02  0.1060521E-14  0.0000000E+00 -0.1301185E-09
 -0.1025842E-02  0.0000000E+00 -0.5050505E-02  0.3221540E-15  0.0000000E+00 -0.1301183E-09
  0.2367855E-03  0.0000000E+00 -0.5050505E-02 -0.1502009E-14  0.0000000E+00 -0.1301188E-09
  0.1499413E-02  0.0000000E+00 -0.5050505E-02 -0.2808821E-14  0.0000000E+00 -0.1301200E-09
  0.2762042E-02  0.0000000E+00 -0.5050505E-02 -0.2786665E-14  0.0000000E+00 -0.1301216E-09
 -0.5050505E-02  0.0000000E+00 -0.5050505E-02  0.4705940E-15  0.0000000E+00 -0.1301222E-09
 -0.5050505E-02  0.0000000E+00 -0.5050505E-02  0.2308573E-14  0.0000000E+00 -0.1301214E-09
 -0.5050505E-02  0.0000000E+00 -0.5050505E-02  0.1166081E-14  0.0000000E+00 -0.1301207E-09
 -0.5050505E-02  0.0000000E+00 -0.5050505E-02 -0.1225347E-14  0.0000000E+00 -0.1301209E-09
 -0.5050505E-02  0.0000000E+00 -0.5050505E-02 -0.1756724E-14  0.0000000E+00 -0.1301213E-09
 -0.5050505E-02  0.0000000E+00 -0.5050505E-02 -0.1291564E-14  0.0000000E+00 -0.1301221E-09
 -0.5050505E-02  0.0000000E+00 -0.5050505E-02 -0.4456571E-16  0.0000000E+00 -0.1301229E-09
 -0.5050504E-02  0.0000000E+00 -0.5050505E-02 -0.5228682E-15  0.0000000E+00 -0.1301232E-09
 -0.5050501E-02  0.0000000E+00 -0.5050505E-02 -0.1053276E-14  0.0000000E+00 -0.1301237E-09
 -0.5050495E-02  0.0000000E+00 -0.5050505E-02 -0.1396871E-14  0.0000000E+00 -0.1301245E-09
 -0.5050482E-02  0.0000000E+00 -0.5050505E-02 -0.1635874E-14  0.0000000E+00 -0.1301255E-09
 -0.5050449E-02  0.0000000E+00 -0.5050505E-02 -0.1830102E-14  0.0000000E+00 -0.1301266E-09
 -0.5050376E-02  0.0000000E+00 -0.5050505E-02 -0.2001878E-14  0.0000000E+00 -0.1301279E-09
 -0.5050299E-02  0.0000000E+00 -0.5050505E-02 -0.2196105E-14  0.0000000E+00 -0.1301293E-09
 -0.5050178E-02  0.0000000E+00 -0.5050505E-02 -0.2382877E-14  0.0000000E+00 -0.1301308E-09
 -0.5050018E-02  0.0000000E+00 -0.5050505E-02 -0.2606927E-14  0.0000000E+00 -0.1301325E-09
 -0.5049710E-02  0.0000000E+00 -0.5050505E-02 -0.2853429E-14  0.0000000E+00 -0.1301343E-09
 -0.5049253E-02  0.0000000E+00 -0.5050505E-02 -0.3137335E-14  0.0000000E+00 -0.1301363E-09
 -0.5048636E-02  0.0000000E+00 -0.5050505E-02 -0.3436069E-14  0.0000000E+00 -0.1301385E-09
 -0.5047442E-02  0.0000000E+00 -0.5050505E-02 -0.3802115E-14  0.0000000E+00 -0.1301409E-09
 -0.5045727E-02  0.0000000E+00 -0.5050505E-02 -0.4205481E-14  0.0000000E+00 -0.1301435E-09
 -0.5043261E-02  0.0000000E+00 -0.5050505E-02 -0.4661164E-14  0.0000000E+00 -0.1301465E-09
 -0.5038714E-02  0.0000000E+00 -0.5050505E-02 -0.5161623E-14  0.0000000E+00 -0.1301497E-09
 -0.5032318E-02  0.0000000E+00 -0.5050505E-02 -0.5751719E-14  0.0000000E+00 -0.1301533E-09
 -0.5022454E-02  0.0000000E+00 -0.5050505E-02 -0.6416582E-14  0.0000000E+00 -0.1301573E-09
 -0.5012589E-02  0.0000000E+00 -0.5050505E-02 -0.7185910E-14  0.0000000E+00 -0.1301618E-09
 -0.5002725E-02  0.0000000E+00 -0.5050505E-02 -0.8059954E-14  0.0000000E+00 -0.1301669E-09
 -0.4992860E-02  0.0000000E+00 -0.5050505E-02 -0.9068370E-14  0.0000000E+00 -0.1301725E-09
 -0.4976523E-02  0.0000000E+00 -0.5050505E-02 -0.1025606E-13  0.0000000E+00 -0.1301789E-09
 -0.4956794E-02  0.0000000E+00 -0.5050505E-02 -0.1166043E-13  0.0000000E+00 -0.1301861E-09
 -0.4937066E-02  0.0000000E+00 -0.5050505E-02 -0.1331126E-13  0.0000000E+00 -0.1301943E-09
 -0.4906239E-02  0.0000000E+00 -0.5050505E-02 -0.1530576E-13  0.0000000E+00 -0.1302036E-09
 -0.4866782E-02  0.0000000E+00 -0.5050505E-02 -0.1769614E-13  0.0000000E+00 -0.1302144E-09
 -0.4827325E-02  0.0000000E+00 -0.5050505E-02 -0.2069910E-13  0.0000000E+00 -0.1302269E-09
 -0.4769372E-02  0.0000000E+00 -0.5050505E-02 -0.2441925E-13  0.0000000E+00 -0.1302415E-09
 -0.4690458E-02  0.0000000E+00 -0.5050505E-02 -0.2912535E-13  0.0000000E+00 -0.1302588E-09
 -0.4611543E-02  0.0000000E+00 -0.5050505E-02 -0.3525845E-13  0.0000000E+00 -0.1302795E-09
 -0.4503035E-02  0.0000000E+00 -0.5050505E-02 -0.4336369E-13  0.0000000E+00 -0.1303046E-09
 -0.4345206E-02  0.0000000E+00 -0.5050505E-02 -0.5430786E-13  0.0000000E+00 -0.1303355E-09
 -0.4187378E-02  0.0000000E+00 -0.5050505E-02 -0.6951788E-13  0.0000000E+00 -0.1303741E-09
 -0.3985156E-02  0.0000000E+00 -0.5050505E-02 -0.9133243E-13  0.0000000E+00 -0.1304235E-09
 -0.3669499E-02  0.0000000E+00 -0.5050505E-02 -0.1237416E-12  0.0000000E+00 -0.1304879E-09
 -0.3353842E-02  0.0000000E+00 -0.5050505E-02 -0.1739569E-12  0.0000000E+00 -0.1305740E-09
 -0.2978990E-02  0.0000000E+00 -0.5050505E-02 -0.2556927E-12  0.0000000E+00 -0.1306915E-09
 -0.2347676E-02  0.0000000E+00 -0.5050505E-02 -0.3966456E-12  0.0000000E+00 -0.1308536E-09
 -0.1716362E-02  0.0000000E+00 -0.5050505E-02 -0.6565850E-12  0.0000000E+00 -0.1310730E-09
 -0.1025842E-02  0.0000000E+00 -0.5050505E-02 -0.1173225E-11  0.0000000E+00 -0.1313301E-09
  0.2367855E-03  0.0000000E+00 -0.5050505E-02 -0.2285401E-11  0.0000000E+00 -0.1314198E-09
  0.1499413E-02  0.0000000E+00 -0.5050505E-02 -0.4876626E-11  0.0000000E+00 -0.1302310E-09
  0.5287294E-02  0.0000000E+00 -0.5050505E-02 -0.1135577E-10  0.0000000E+00 -0.1224198E-09
 -0.5050505E-02  0.0000000E+00 -0.5050505E-02 -0.2568227E-13  0.0000000E+00 -0.1296514E-09
 -0.5050505E-02  0.0000000E+00 -0.5050505E-02 -0.2310024E-13  0.0000000E+00 -0.1296556E-09
 -0.5050505E-02  0.0000000E+00 -0.5050505E-02 -0.1261252E-13  0.0000000E+00 -0.1296597E-09
 -0.5050505E-02  0.0000000E+00 -0.5050505E-02 -0.1082805E-13  0.0000000E+00 -0.1296628E-09
 -0.5050505E-02  0.0000000E+00 -0.5050505E-02 -0.9787133E-14  0.0000000E+00 -0.1296660E-09
 -0.5050505E-02  0.0000000E+00 -0.5050505E-02 -0.8835688E-14  0.0000000E+00 -0.1296691E-09
 -0.5050504E-02  0.0000000E+00 -0.5050505E-02 -0.7966046E-14  0.0000000E+00 -0.1296721E-09
 -0.5050501E-02  0.0000000E+00 -0.5050505E-02 -0.7222859E-14  0.0000000E+00 -0.1296748E-09
 -0.5050495E-02  0.0000000E+00 -0.5050505E-02 -0.6583759E-14  0.0000000E+00 -0.1296774E-09
 -0.5050482E-02  0.0000000E+00 -0.5050505E-02 -0.6063575E-14  0.0000000E+00 -0.1296798E-09
 -0.5050449E-02  0.0000000E+00 -0.5050505E-02 -0.5587957E-14  0.0000000E+00 -0.1296820E-09
 -0.5050376E-02  0.0000000E+00 -0.5050505E-02 -0.5194101E-14  0.0000000E+00 -0.1296840E-09
 -0.5050299E-02  0.0000000E+00 -0.5050505E-02 -0.4867179E-14  0.0000000E+00 -0.1296860E-09
 -0.5050178E-02  0.0000000E+00 -0.5050505E-02 -0.4547629E-14  0.0000000E+00 -0.1296878E-09
 -0.5050018E-02  0.0000000E+00 -0.5050505E-02 -0.4265274E-14  0.0000000E+00 -0.1296895E-09
 -0.5049710E-02  0.0000000E+00 -0.5050505E-02 -0.4005160E-14  0.0000000E+00 -0.1296911E-09
 -0.5049253E-02  0.0000000E+00 -0.5050505E-02 -0.3745131E-14  0.0000000E+00 -0.1296925E-09
 -0.5048636E-02  0.0000000E+00 -0.5050505E-02 -0.3499845E-14  0.0000000E+00 -0.1296939E-09
 -0.5047442E-02  0.0000000E+00 -0.5050505E-02 -0.3269513E-14  0.0000000E+00 -0.1296953E-09
 -0.5045727E-02  0.0000000E+00 -0.5050505E-02 -0.3083789E-14  0.0000000E+00 -0.1296965E-09
 -0.5043261E-02  0.0000000E+00 -0.5050505E-02 -0.2868243E-14  0.0000000E+00 -0.1296976E-09
 -0.5038714E-02  0.0000000E+00 -0.5050505E-02 -0.2704803E-14  0.0000000E+00 -0.1296987E-09
 -0.5032318E-02  0.0000000E+00 -0.5050505E-02 -0.2526451E-14  0.0000000E+00 -0.1296997E-09
 -0.5022454E-02  0.0000000E+00 -0.5050505E-02 -0.2377839E-14  0.0000000E+00 -0.1297007E-09
 -0.5012589E-02  0.0000000E+00 -0.5050505E-02 -0.2229226E-14  0.0000000E+00 -0.1297016E-09
 -0.5002725E-02  0.0000000E+00 -0.5050505E-02 -0.2080614E-14  0.0000000E+00 -0.1297024E-09
 -0.4992860E-02  0.0000000E+00 -0.5050505E-02 -0.1954285E-14  0.0000000E+00 -0.1297032E-09
 -0.4976523E-02  0.0000000E+00 -0.5050505E-02 -0.1805673E-14  0.0000000E+00 -0.1297039E-09
 -0.4956794E-02  0.0000000E+00 -0.5050505E-02 -0.1694214E-14  0.0000000E+00 -0.1297046E-09
 -0.4937066E-02  0.0000000E+00 -0.5050505E-02 -0.1582755E-14  0.0000000E+00 -0.1297052E-09
 -0.4906239E-02  0.0000000E+00 -0.5050505E-02 -0.1471295E-14  0.0000000E+00 -0.1297058E-09
 -0.4866782E-02  0.0000000E+00 -0.5050505E-02 -0.1389533E-14  0.0000000E+00 -0.1297064E-09
 -0.4827325E-02  0.0000000E+00 -0.5050505E-02 -0.1285530E-14  0.0000000E+00 -0.1297069E-09
 -0.4769372E-02  0.0000000E+00 -0.5050505E-02 -0.1203768E-14  0.0000000E+00 -0.1297074E-09
 -0.4690458E-02  0.0000000E+00 -0.5050505E-02 -0.1129462E-14  0.0000000E+00 -0.1297078E-09
 -0.4611543E-02  0.0000000E+00 -0.5050505E-02 -0.1047742E-14  0.0000000E+00 -0.1297082E-09
 -0.4503035E-02  0.0000000E+00 -0.5050505E-02 -0.9511522E-15  0.0000000E+00 -0.1297086E-09
 -0.4345206E-02  0.0000000E+00 -0.5050505E-02 -0.8768461E-15  0.0000000E+00 -0.1297090E-09
 -0.4187378E-02  0.0000000E+00 -0.5050505E-02 -0.7653868E-15  0.0000000E+00 -0.1297093E-09
 -0.3985156E-02  0.0000000E+00 -0.5050505E-02 -0.6316023E-15  0.0000000E+00 -0.1297095E-09
 -0.3669499E-02  0.0000000E+00 -0.5050505E-02 -0.4457951E-15  0.0000000E+00 -0.1297098E-09
 -0.3353842E-02  0.0000000E+00 -0.5050505E-02 -0.1410730E-15  0.0000000E+00 -0.1297099E-09
 -0.2978990E-02  0.0000000E+00 -0.5050505E-02  0.4533763E-15  0.0000000E+00 -0.1297099E-09
 -0.2347676E-02  0.0000000E+00 -0.5050505E-02  0.1367083E-14  0.0000000E+00 -0.1297096E-09
 -0.1716362E-02  0.0000000E+00 -0.5050505E-02  0.1627781E-14  0.0000000E+00 -0.1297091E-09
 -0.1025842E-02  0.0000000E+00 -0.5050505E-02  0.3931871E-15  0.0000000E+00 -0.1297086E-09
  0.2367855E-03  0.0000000E+00 -0.5050505E-02 -0.1465554E-14  0.0000000E+00 -0.1297080E-09
  0.1499413E-02  0.0000000E+00 -0.5050505E-02 -0.5503979E-14  0.0000000E+00 -0.1297095E-09
  0.2762042E-02  0.0000000E+00 -0.5050505E-02 -0.4198800E-14  0.0000000E+00 -0.1297120E-09
 -0.5050505E-02  0.0000000E+00 -0.5050505E-02  0.9359063E-15  0.0000000E+00 -0.1297124E-09
 -0.5050505E-02  0.0000000E+00 -0.5050505E-02  0.3500138E-14  0.0000000E+00 -0.1297115E-09
 -0.5050505E-02  0.0000000E+00 -0.5050505E-02  0.1404779E-14  0.0000000E+00 -0.1297108E-09
 -0.5050505E-02  0.0000000E+00 -0.5050505E-02 -0.1079279E-14  0.0000000E+00 -0.1297102E-09
 -0.5050505E-02  0.0000000E+00 -0.5050505E-02 -0.3764069E-14  0.0000000E+00 -0.1297117E-09
 -0.5050505E-02  0.0000000E+00 -0.5050505E-02 -0.1621747E-14  0.0000000E+00 -0.1297132E-09
 -0.5050505E-02  0.0000000E+00 -0.5050505E-02 -0.1931793E-15  0.0000000E+00 -0.1297129E-09
 -0.5050504E-02  0.0000000E+00 -0.5050505E-02 -0.9138737E-15  0.0000000E+00 -0.1297132E-09
 -0.5050501E-02  0.0000000E+00 -0.5050505E-02 -0.1731325E-14  0.0000000E+00 -0.1297137E-09
 -0.5050495E-02  0.0000000E+00 -0.5050505E-02 -0.2303491E-14  0.0000000E+00 -0.1297146E-09
 -0.5050482E-02  0.0000000E+00 -0.5050505E-02 -0.2704761E-14  0.0000000E+00 -0.1297155E-09
 -0.5050449E-02  0.0000000E+00 -0.5050505E-02 -0.3016855E-14  0.0000000E+00 -0.1297167E-09
 -0.5050376E-02  0.0000000E+00 -0.5050505E-02 -0.3328907E-14  0.0000000E+00 -0.1297179E-09
 -0.5050299E-02  0.0000000E+00 -0.5050505E-02 -0.3618760E-14  0.0000000E+00 -0.1297193E-09
 -0.5050178E-02  0.0000000E+00 -0.5050505E-02 -0.3945640E-14  0.0000000E+00 -0.1297208E-09
 -0.5050018E-02  0.0000000E+00 -0.5050505E-02 -0.4309799E-14  0.0000000E+00 -0.1297224E-09
 -0.5049710E-02  0.0000000E+00 -0.5050505E-02 -0.4725897E-14  0.0000000E+00 -0.1297242E-09
 -0.5049253E-02  0.0000000E+00 -0.5050505E-02 -0.5171733E-14  0.0000000E+00 -0.1297262E-09
 -0.5048636E-02  0.0000000E+00 -0.5050505E-02 -0.5677049E-14  0.0000000E+00 -0.1297283E-09
 -0.5047442E-02  0.0000000E+00 -0.5050505E-02 -0.6264084E-14  0.0000000E+00 -0.1297306E-09
 -0.5045727E-02  0.0000000E+00 -0.5050505E-02 -0.6932840E-14  0.0000000E+00 -0.1297332E-09
 -0.5043261E-02  0.0000000E+00 -0.5050505E-02 -0.7675901E-14  0.0000000E+00 -0.1297361E-09
 -0.5038714E-02  0.0000000E+00 -0.5050505E-02 -0.8508138E-14  0.0000000E+00 -0.1297393E-09
 -0.5032318E-02  0.0000000E+00 -0.5050505E-02 -0.9466746E-14  0.0000000E+00 -0.1297428E-09
 -0.5022454E-02  0.0000000E+00 -0.5050505E-02 -0.1055160E-13  0.0000000E+00 -0.1297467E-09
 -0.5012589E-02  0.0000000E+00 -0.5050505E-02 -0.1180006E-13  0.0000000E+00 -0.1297510E-09
 -0.5002725E-02  0.0000000E+00 -0.5050505E-02 -0.1322670E-13  0.0000000E+00 -0.1297558E-09
 -0.4992860E-02  0.0000000E+00 -0.5050505E-02 -0.1487635E-13  0.0000000E+00 -0.1297613E-09
 -0.4976523E-02  0.0000000E+00 -0.5050505E-02 -0.1679357E-13  0.0000000E+00 -0.1297674E-09
 -0.4956794E-02  0.0000000E+00 -0.5050505E-02 -0.1905999E-13  0.0000000E+00 -0.1297742E-09
 -0.4937066E-02  0.0000000E+00 -0.5050505E-02 -0.2172772E-13  0.0000000E+00 -0.1297820E-09
 -0.4906239E-02  0.0000000E+00 -0.5050505E-02 -0.2490823E-13  0.0000000E+00 -0.1297908E-09
 -0.4866782E-02  0.0000000E+00 -0.5050505E-02 -0.2877231E-13  0.0000000E+00 -0.1298009E-09
 -0.4827325E-02  0.0000000E+00 -0.5050505E-02 -0.3352087E-13  0.0000000E+00 -0.1298125E-09
 -0.4769372E-02  0.0000000E+00 -0.5050505E-02 -0.3938410E-13  0.0000000E+00 -0.1298259E-09
 -0.4690458E-02  0.0000000E+00 -0.5050505E-02 -0.4680797E-13  0.0000000E+00 -0.1298415E-09
 -0.4611543E-02  0.0000000E+00 -0.5050505E-02 -0.5632021E-13  0.0000000E+00 -0.1298600E-09
 -0.4503035E-02  0.0000000E+00 -0.5050505E-02 -0.6877557E-13  0.0000000E+00 -0.1298818E-09
 -0.4345206E-02  0.0000000E+00 -0.5050505E-02 -0.8535581E-13  0.0000000E+00 -0.1299079E-09
 -0.4187378E-02  0.0000000E+00 -0.5050505E-02 -0.1080011E-12  0.0000000E+00 -0.1299395E-09
 -0.3985156E-02  0.0000000E+00 -0.5050505E-02 -0.1397073E-12  0.0000000E+00 -0.1299779E-09
 -0.3669499E-02  0.0000000E+00 -0.5050505E-02 -0.1853218E-12  0.0000000E+00 -0.1300247E-09
 -0.3353842E-02  0.0000000E+00 -0.5050505E-02 -0.2529943E-12  0.0000000E+00 -0.1300809E-09
 -0.2978990E-02  0.0000000E+00 -0.5050505E-02 -0.3566470E-12  0.0000000E+00 -0.1301458E-09
 -0.2347676E-02  0.0000000E+00 -0.5050505E-02 -0.5205316E-12  0.0000000E+00 -0.1302121E-09
 -0.1716362E-02  0.0000000E+00 -0.5050505E-02 -0.7866517E-12  0.0000000E+00 -0.1302526E-09
 -0.1025842E-02  0.0000000E+00 -0.5050505E-02 -0.1223140E-11  0.0000000E+00 -0.1301857E-09
  0.2367855E-03  0.0000000E+00 -0.5050505E-02 -0.1914629E-11  0.0000000E+00 -0.1297947E-09
  0.1499413E-02  0.0000000E+00 -0.5050505E-02 -0.2827157E-11  0.0000000E+00 -0.1286034E-09
  0.5287294E-02  0.0000000E+00 -0.5050505E-02 -0.3037315E-11  0.0000000E+00 -0.1261379E-09
 -0.5050505E-02  0.0000000E+00 -0.5050505E-02 -0.2840870E-13  0.0000000E+00 -0.1290432E-09
 -0.5050505E-02  0.0000000E+00 -0.5050505E-02 -0.2709135E-13  0.0000000E+00 -0.1290460E-09
 -0.5050505E-02  0.0000000E+00 -0.5050505E-02 -0.1493911E-13  0.0000000E+00 -0.1290484E-09
 -0.5050505E-02  0.0000000E+00 -0.5050505E-02 -0.1344503E-13  0.0000000E+00 -0.1290504E-09
 -0.5050505E-02  0.0000000E+00 -0.5050505E-02 -0.1256485E-13  0.0000000E+00 -0.1290527E-09
 -0.5050505E-02  0.0000000E+00 -0.5050505E-02 -0.1156672E-13  0.0000000E+00 -0.1290552E-09
 -0.5050504E-02  0.0000000E+00 -0.5050505E-02 -0.1060565E-13  0.0000000E+00 -0.1290577E-09
 -0.5050501E-02  0.0000000E+00 -0.5050505E-02 -0.9696479E-14  0.0000000E+00 -0.1290601E-09
 -0.5050495E-02  0.0000000E+00 -0.5050505E-02 -0.8890814E-14  0.0000000E+00 -0.1290624E-09
 -0.5050482E-02  0.0000000E+00 -0.5050505E-02 -0.8210852E-14  0.0000000E+00 -0.1290646E-09
 -0.5050449E-02  0.0000000E+00 -0.5050505E-02 -0.7612153E-14  0.0000000E+00 -0.1290666E-09
 -0.5050376E-02  0.0000000E+00 -0.5050505E-02 -0.7094799E-14  0.0000000E+00 -0.1290685E-09
 -0.5050299E-02  0.0000000E+00 -0.5050505E-02 -0.6629218E-14  0.0000000E+00 -0.1290703E-09
 -0.5050178E-02  0.0000000E+00 -0.5050505E-02 -0.6222699E-14  0.0000000E+00 -0.1290720E-09
 -0.5050018E-02  0.0000000E+00 -0.5050505E-02 -0.5823636E-14  0.0000000E+00 -0.1290736E-09
 -0.5049710E-02  0.0000000E+00 -0.5050505E-02 -0.5476304E-14  0.0000000E+00 -0.1290751E-09
 -0.5049253E-02  0.0000000E+00 -0.5050505E-02 -0.5121516E-14  0.0000000E+00 -0.1290765E-09
 -0.5048636E-02  0.0000000E+00 -0.5050505E-02 -0.4803756E-14  0.0000000E+00 -0.1290778E-09
 -0.5047442E-02  0.0000000E+00 -0.5050505E-02 -0.4493327E-14  0.0000000E+00 -0.1290790E-09
 -0.5045727E-02  0.0000000E+00 -0.5050505E-02 -0.4212513E-14  0.0000000E+00 -0.1290802E-09
 -0.5043261E-02  0.0000000E+00 -0.5050505E-02 -0.3946443E-14  0.0000000E+00 -0.1290813E-09
 -0.5038714E-02  0.0000000E+00 -0.5050505E-02 -0.3702573E-14  0.0000000E+00 -0.1290823E-09
 -0.5032318E-02  0.0000000E+00 -0.5050505E-02 -0.3458703E-14  0.0000000E+00 -0.1290833E-09
 -0.5022454E-02  0.0000000E+00 -0.5050505E-02 -0.3251778E-14  0.0000000E+00 -0.1290842E-09
 -0.5012589E-02  0.0000000E+00 -0.5050505E-02 -0.3044853E-14  0.0000000E+00 -0.1290850E-09
 -0.5002725E-02  0.0000000E+00 -0.5050505E-02 -0.2852673E-14  0.0000000E+00 -0.1290858E-09
 -0.4992860E-02  0.0000000E+00 -0.5050505E-02 -0.2667948E-14  0.0000000E+00 -0.1290865E-09
 -0.4976523E-02  0.0000000E+00 -0.5050505E-02 -0.2468396E-14  0.0000000E+00 -0.1290872E-09
 -0.4956794E-02  0.0000000E+00 -0.5050505E-02 -0.2320574E-14  0.0000000E+00 -0.1290878E-09
 -0.4937066E-02  0.0000000E+00 -0.5050505E-02 -0.2158008E-14  0.0000000E+00 -0.1290884E-09