title = "dataset feddes"
variables = "x", "y", "z", "vx", "vy", "vz"
zone t = "velocities, solution time =  1.500E+01 days        " i =   99, j =   99, k =    1,  f=point
 -0.5050505E-02  0.0000000E+00 -0.5050505E-02  0.3568968E-14  0.0000000E+00  0.1414944E-10
 -0.5050505E-02  0.0000000E+00 -0.5050505E-02  0.5879050E-13  0.0000000E+00  0.1421215E-10
 -0.5050505E-02  0.0000000E+00 -0.5050505E-02  0.1329965E-12  0.0000000E+00  0.1440502E-10
 -0.5050505E-02  0.0000000E+00 -0.5050505E-02  0.1983776E-12  0.0000000E+00  0.1473827E-10
 -0.5050505E-02  0.0000000E+00 -0.5050505E-02  0.2596349E-12  0.0000000E+00  0.1519888E-10
 -0.5050505E-02  0.0000000E+00 -0.5050505E-02  0.3183054E-12  0.0000000E+00  0.1578009E-10
 -0.5050504E-02  0.0000000E+00 -0.5050505E-02  0.3750265E-12  0.0000000E+00  0.1647735E-10
 -0.5050501E-02  0.0000000E+00 -0.5050505E-02  0.4298882E-12  0.0000000E+00  0.1728682E-10
 -0.5050495E-02  0.0000000E+00 -0.5050505E-02  0.4829428E-12  0.0000000E+00  0.1820482E-10
 -0.5050482E-02  0.0000000E+00 -0.5050505E-02  0.5339880E-12  0.0000000E+00  0.1922750E-10
 -0.5050449E-02  0.0000000E+00 -0.5050505E-02  0.5829714E-12  0.0000000E+00  0.2035079E-10
 -0.5050376E-02  0.0000000E+00 -0.5050505E-02  0.6296154E-12  0.0000000E+00  0.2157024E-10
 -0.5050299E-02  0.0000000E+00 -0.5050505E-02  0.6738301E-12  0.0000000E+00  0.2288106E-10
 -0.5050178E-02  0.0000000E+00 -0.5050505E-02  0.7153906E-12  0.0000000E+00  0.2427815E-10
 -0.5050018E-02  0.0000000E+00 -0.5050505E-02  0.7541319E-12  0.0000000E+00  0.2575599E-10
 -0.5049710E-02  0.0000000E+00 -0.5050505E-02  0.7899115E-12  0.0000000E+00  0.2730877E-10
 -0.5049253E-02  0.0000000E+00 -0.5050505E-02  0.8225796E-12  0.0000000E+00  0.2893039E-10
 -0.5048636E-02  0.0000000E+00 -0.5050505E-02  0.8519711E-12  0.0000000E+00  0.3061442E-10
 -0.5047442E-02  0.0000000E+00 -0.5050505E-02  0.8779661E-12  0.0000000E+00  0.3235415E-10
 -0.5045727E-02  0.0000000E+00 -0.5050505E-02  0.9004446E-12  0.0000000E+00  0.3414263E-10
 -0.5043261E-02  0.0000000E+00 -0.5050505E-02  0.9192791E-12  0.0000000E+00  0.3597266E-10
 -0.5038714E-02  0.0000000E+00 -0.5050505E-02  0.9344322E-12  0.0000000E+00  0.3783686E-10
 -0.5032318E-02  0.0000000E+00 -0.5050505E-02  0.9457539E-12  0.0000000E+00  0.3972769E-10
 -0.5022454E-02  0.0000000E+00 -0.5050505E-02  0.9531693E-12  0.0000000E+00  0.4163736E-10
 -0.5012589E-02  0.0000000E+00 -0.5050505E-02  0.9567083E-12  0.0000000E+00  0.4355805E-10
 -0.5002725E-02  0.0000000E+00 -0.5050505E-02  0.9562209E-12  0.0000000E+00  0.4548181E-10
 -0.4992860E-02  0.0000000E+00 -0.5050505E-02  0.9517672E-12  0.0000000E+00  0.4740060E-10
 -0.4976523E-02  0.0000000E+00 -0.5050505E-02  0.9433172E-12  0.0000000E+00  0.4930641E-10
 -0.4956794E-02  0.0000000E+00 -0.5050505E-02  0.9308783E-12  0.0000000E+00  0.5119122E-10
 -0.4937066E-02  0.0000000E+00 -0.5050505E-02  0.9144505E-12  0.0000000E+00  0.5304700E-10
 -0.4906239E-02  0.0000000E+00 -0.5050505E-02  0.8941464E-12  0.0000000E+00  0.5486583E-10
 -0.4866782E-02  0.0000000E+00 -0.5050505E-02  0.8699659E-12  0.0000000E+00  0.5663993E-10
 -0.4827325E-02  0.0000000E+00 -0.5050505E-02  0.8421039E-12  0.0000000E+00  0.5836169E-10
 -0.4769372E-02  0.0000000E+00 -0.5050505E-02  0.8105306E-12  0.0000000E+00  0.6002368E-10
 -0.4690458E-02  0.0000000E+00 -0.5050505E-02  0.7754407E-12  0.0000000E+00  0.6161863E-10
 -0.4611543E-02  0.0000000E+00 -0.5050505E-02  0.7370368E-12  0.0000000E+00  0.6313967E-10
 -0.4503035E-02  0.0000000E+00 -0.5050505E-02  0.6955138E-12  0.0000000E+00  0.6458033E-10
 -0.4345206E-02  0.0000000E+00 -0.5050505E-02  0.6507968E-12  0.0000000E+00  0.6593426E-10
 -0.4187378E-02  0.0000000E+00 -0.5050505E-02  0.6027657E-12  0.0000000E+00  0.6719492E-10
 -0.3985156E-02  0.0000000E+00 -0.5050505E-02  0.5517804E-12  0.0000000E+00  0.6835600E-10
 -0.3669499E-02  0.0000000E+00 -0.5050505E-02  0.4983733E-12  0.0000000E+00  0.6941210E-10
 -0.3353842E-02  0.0000000E+00 -0.5050505E-02  0.4431218E-12  0.0000000E+00  0.7035893E-10
 -0.2978990E-02  0.0000000E+00 -0.5050505E-02  0.3864607E-12  0.0000000E+00  0.7119321E-10
 -0.2347676E-02  0.0000000E+00 -0.5050505E-02  0.3281351E-12  0.0000000E+00  0.7191185E-10
 -0.1716362E-02  0.0000000E+00 -0.5050505E-02  0.2672302E-12  0.0000000E+00  0.7251058E-10
 -0.1025842E-02  0.0000000E+00 -0.5050505E-02  0.2042034E-12  0.0000000E+00  0.7298469E-10
  0.2367855E-03  0.0000000E+00 -0.5050505E-02  0.1396171E-12  0.0000000E+00  0.7333045E-10
  0.1499413E-02  0.0000000E+00 -0.5050505E-02  0.7424353E-13  0.0000000E+00  0.7354553E-10
  0.2762042E-02  0.0000000E+00 -0.5050505E-02  0.9004895E-14  0.0000000E+00  0.7362924E-10
 -0.5050505E-02  0.0000000E+00 -0.5050505E-02 -0.4375734E-13  0.0000000E+00  0.7359430E-10
 -0.5050505E-02  0.0000000E+00 -0.5050505E-02 -0.9974365E-13  0.0000000E+00  0.7344998E-10
 -0.5050505E-02  0.0000000E+00 -0.5050505E-02 -0.1680714E-12  0.0000000E+00  0.7318065E-10
 -0.5050505E-02  0.0000000E+00 -0.5050505E-02 -0.2346371E-12  0.0000000E+00  0.7277566E-10
 -0.5050505E-02  0.0000000E+00 -0.5050505E-02 -0.2981663E-12  0.0000000E+00  0.7223984E-10
 -0.5050505E-02  0.0000000E+00 -0.5050505E-02 -0.3593861E-12  0.0000000E+00  0.7157857E-10
 -0.5050505E-02  0.0000000E+00 -0.5050505E-02 -0.4190838E-12  0.0000000E+00  0.7079569E-10
 -0.5050504E-02  0.0000000E+00 -0.5050505E-02 -0.4775069E-12  0.0000000E+00  0.6989403E-10
 -0.5050501E-02  0.0000000E+00 -0.5050505E-02 -0.5341380E-12  0.0000000E+00  0.6887665E-10
 -0.5050495E-02  0.0000000E+00 -0.5050505E-02 -0.5878000E-12  0.0000000E+00  0.6774836E-10
 -0.5050482E-02  0.0000000E+00 -0.5050505E-02 -0.6386653E-12  0.0000000E+00  0.6651496E-10
 -0.5050449E-02  0.0000000E+00 -0.5050505E-02 -0.6867864E-12  0.0000000E+00  0.6518200E-10
 -0.5050376E-02  0.0000000E+00 -0.5050505E-02 -0.7322982E-12  0.0000000E+00  0.6375488E-10
 -0.5050299E-02  0.0000000E+00 -0.5050505E-02 -0.7749833E-12  0.0000000E+00  0.6223907E-10
 -0.5050178E-02  0.0000000E+00 -0.5050505E-02 -0.8145644E-12  0.0000000E+00  0.6064052E-10
 -0.5050018E-02  0.0000000E+00 -0.5050505E-02 -0.8505090E-12  0.0000000E+00  0.5896602E-10
 -0.5049710E-02  0.0000000E+00 -0.5050505E-02 -0.8828921E-12  0.0000000E+00  0.5722281E-10
 -0.5049253E-02  0.0000000E+00 -0.5050505E-02 -0.9117513E-12  0.0000000E+00  0.5541801E-10
 -0.5048636E-02  0.0000000E+00 -0.5050505E-02 -0.9369440E-12  0.0000000E+00  0.5355884E-10
 -0.5047442E-02  0.0000000E+00 -0.5050505E-02 -0.9583578E-12  0.0000000E+00  0.5165281E-10
 -0.5045727E-02  0.0000000E+00 -0.5050505E-02 -0.9758278E-12  0.0000000E+00  0.4970768E-10
 -0.5043261E-02  0.0000000E+00 -0.5050505E-02 -0.9893838E-12  0.0000000E+00  0.4773134E-10
 -0.5038714E-02  0.0000000E+00 -0.5050505E-02 -0.9990035E-12  0.0000000E+00  0.4573170E-10
 -0.5032318E-02  0.0000000E+00 -0.5050505E-02 -0.1004664E-11  0.0000000E+00  0.4371669E-10
 -0.5022454E-02  0.0000000E+00 -0.5050505E-02 -0.1006351E-11  0.0000000E+00  0.4169429E-10
 -0.5012589E-02  0.0000000E+00 -0.5050505E-02 -0.1004080E-11  0.0000000E+00  0.3967247E-10
 -0.5002725E-02  0.0000000E+00 -0.5050505E-02 -0.9978864E-12  0.0000000E+00  0.3765917E-10
 -0.4992860E-02  0.0000000E+00 -0.5050505E-02 -0.9878393E-12  0.0000000E+00  0.3566221E-10
 -0.4976523E-02  0.0000000E+00 -0.5050505E-02 -0.9739758E-12  0.0000000E+00  0.3368929E-10
 -0.4956794E-02  0.0000000E+00 -0.5050505E-02 -0.9564159E-12  0.0000000E+00  0.3174797E-10
 -0.4937066E-02  0.0000000E+00 -0.5050505E-02 -0.9352420E-12  0.0000000E+00  0.2984560E-10
 -0.4906239E-02  0.0000000E+00 -0.5050505E-02 -0.9105516E-12  0.0000000E+00  0.2798936E-10
 -0.4866782E-02  0.0000000E+00 -0.5050505E-02 -0.8824348E-12  0.0000000E+00  0.2618622E-10
 -0.4827325E-02  0.0000000E+00 -0.5050505E-02 -0.8510788E-12  0.0000000E+00  0.2444289E-10
 -0.4769372E-02  0.0000000E+00 -0.5050505E-02 -0.8165588E-12  0.0000000E+00  0.2276582E-10
 -0.4690458E-02  0.0000000E+00 -0.5050505E-02 -0.7790622E-12  0.0000000E+00  0.2116116E-10
 -0.4611543E-02  0.0000000E+00 -0.5050505E-02 -0.7387388E-12  0.0000000E+00  0.1963477E-10
 -0.4503035E-02  0.0000000E+00 -0.5050505E-02 -0.6956788E-12  0.0000000E+00  0.1819223E-10
 -0.4345206E-02  0.0000000E+00 -0.5050505E-02 -0.6501669E-12  0.0000000E+00  0.1683877E-10
 -0.4187378E-02  0.0000000E+00 -0.5050505E-02 -0.6022033E-12  0.0000000E+00  0.1557931E-10
 -0.3985156E-02  0.0000000E+00 -0.5050505E-02 -0.5520728E-12  0.0000000E+00  0.1441850E-10
 -0.3669499E-02  0.0000000E+00 -0.5050505E-02 -0.4997904E-12  0.0000000E+00  0.1336068E-10
 -0.3353842E-02  0.0000000E+00 -0.5050505E-02 -0.4453937E-12  0.0000000E+00  0.1241014E-10
 -0.2978990E-02  0.0000000E+00 -0.5050505E-02 -0.3887701E-12  0.0000000E+00  0.1157126E-10
 -0.2347676E-02  0.0000000E+00 -0.5050505E-02 -0.3292373E-12  0.0000000E+00  0.1084918E-10
 -0.1716362E-02  0.0000000E+00 -0.5050505E-02 -0.2651758E-12  0.0000000E+00  0.1025141E-10
 -0.1025842E-02  0.0000000E+00 -0.5050505E-02 -0.1915096E-12  0.0000000E+00  0.9792136E-11
  0.2367855E-03  0.0000000E+00 -0.5050505E-02 -0.9274817E-13  0.0000000E+00  0.9506269E-11
  0.1499413E-02  0.0000000E+00 -0.5050505E-02  0.8370579E-13  0.0000000E+00  0.9497175E-11
  0.5287294E-02  0.0000000E+00 -0.5050505E-02  0.3162857E-11  0.0000000E+00  0.7487948E-11
 -0.5050505E-02  0.0000000E+00 -0.5050505E-02  0.1753350E-13  0.0000000E+00  0.1466476E-10
 -0.5050505E-02  0.0000000E+00 -0.5050505E-02  0.1863054E-12  0.0000000E+00  0.1474468E-10
 -0.5050505E-02  0.0000000E+00 -0.5050505E-02  0.4028408E-12  0.0000000E+00  0.1495250E-10
 -0.5050505E-02  0.0000000E+00 -0.5050505E-02  0.5968924E-12  0.0000000E+00  0.1529326E-10
 -0.5050505E-02  0.0000000E+00 -0.5050505E-02  0.7801847E-12  0.0000000E+00  0.1575950E-10
 -0.5050505E-02  0.0000000E+00 -0.5050505E-02  0.9561334E-12  0.0000000E+00  0.1634649E-10
 -0.5050504E-02  0.0000000E+00 -0.5050505E-02  0.1126353E-11  0.0000000E+00  0.1705016E-10
 -0.5050501E-02  0.0000000E+00 -0.5050505E-02  0.1291126E-11  0.0000000E+00  0.1786692E-10
 -0.5050495E-02  0.0000000E+00 -0.5050505E-02  0.1450373E-11  0.0000000E+00  0.1879309E-10
 -0.5050482E-02  0.0000000E+00 -0.5050505E-02  0.1603732E-11  0.0000000E+00  0.1982484E-10
 -0.5050449E-02  0.0000000E+00 -0.5050505E-02  0.1750773E-11  0.0000000E+00  0.2095807E-10
 -0.5050376E-02  0.0000000E+00 -0.5050505E-02  0.1890897E-11  0.0000000E+00  0.2218829E-10
 -0.5050299E-02  0.0000000E+00 -0.5050505E-02  0.2023663E-11  0.0000000E+00  0.2351072E-10
 -0.5050178E-02  0.0000000E+00 -0.5050505E-02  0.2148474E-11  0.0000000E+00  0.2492014E-10
 -0.5050018E-02  0.0000000E+00 -0.5050505E-02  0.2264851E-11  0.0000000E+00  0.2641105E-10
 -0.5049710E-02  0.0000000E+00 -0.5050505E-02  0.2372317E-11  0.0000000E+00  0.2797761E-10
 -0.5049253E-02  0.0000000E+00 -0.5050505E-02  0.2470424E-11  0.0000000E+00  0.2961362E-10
 -0.5048636E-02  0.0000000E+00 -0.5050505E-02  0.2558686E-11  0.0000000E+00  0.3131259E-10
 -0.5047442E-02  0.0000000E+00 -0.5050505E-02  0.2636781E-11  0.0000000E+00  0.3306776E-10
 -0.5045727E-02  0.0000000E+00 -0.5050505E-02  0.2704263E-11  0.0000000E+00  0.3487211E-10
 -0.5043261E-02  0.0000000E+00 -0.5050505E-02  0.2760890E-11  0.0000000E+00  0.3671842E-10
 -0.5038714E-02  0.0000000E+00 -0.5050505E-02  0.2806365E-11  0.0000000E+00  0.3859923E-10
 -0.5032318E-02  0.0000000E+00 -0.5050505E-02  0.2840330E-11  0.0000000E+00  0.4050684E-10
 -0.5022454E-02  0.0000000E+00 -0.5050505E-02  0.2862694E-11  0.0000000E+00  0.4243351E-10
 -0.5012589E-02  0.0000000E+00 -0.5050505E-02  0.2873234E-11  0.0000000E+00  0.4437130E-10
 -0.5002725E-02  0.0000000E+00 -0.5050505E-02  0.2871800E-11  0.0000000E+00  0.4631213E-10
 -0.4992860E-02  0.0000000E+00 -0.5050505E-02  0.2858355E-11  0.0000000E+00  0.4824791E-10
 -0.4976523E-02  0.0000000E+00 -0.5050505E-02  0.2832958E-11  0.0000000E+00  0.5017050E-10
 -0.4956794E-02  0.0000000E+00 -0.5050505E-02  0.2795565E-11  0.0000000E+00  0.5207185E-10
 -0.4937066E-02  0.0000000E+00 -0.5050505E-02  0.2746227E-11  0.0000000E+00  0.5394387E-10
 -0.4906239E-02  0.0000000E+00 -0.5050505E-02  0.2685051E-11  0.0000000E+00  0.5577842E-10
 -0.4866782E-02  0.0000000E+00 -0.5050505E-02  0.2612401E-11  0.0000000E+00  0.5756761E-10
 -0.4827325E-02  0.0000000E+00 -0.5050505E-02  0.2528636E-11  0.0000000E+00  0.5930389E-10
 -0.4769372E-02  0.0000000E+00 -0.5050505E-02  0.2433779E-11  0.0000000E+00  0.6097973E-10
 -0.4690458E-02  0.0000000E+00 -0.5050505E-02  0.2328165E-11  0.0000000E+00  0.6258768E-10
 -0.4611543E-02  0.0000000E+00 -0.5050505E-02  0.2212685E-11  0.0000000E+00  0.6412069E-10
 -0.4503035E-02  0.0000000E+00 -0.5050505E-02  0.2088105E-11  0.0000000E+00  0.6557258E-10
 -0.4345206E-02  0.0000000E+00 -0.5050505E-02  0.1954121E-11  0.0000000E+00  0.6693742E-10
 -0.4187378E-02  0.0000000E+00 -0.5050505E-02  0.1809844E-11  0.0000000E+00  0.6820845E-10
 -0.3985156E-02  0.0000000E+00 -0.5050505E-02  0.1656402E-11  0.0000000E+00  0.6937866E-10
 -0.3669499E-02  0.0000000E+00 -0.5050505E-02  0.1495402E-11  0.0000000E+00  0.7044204E-10
 -0.3353842E-02  0.0000000E+00 -0.5050505E-02  0.1328882E-11  0.0000000E+00  0.7139397E-10
 -0.2978990E-02  0.0000000E+00 -0.5050505E-02  0.1158730E-11  0.0000000E+00  0.7223178E-10
 -0.2347676E-02  0.0000000E+00 -0.5050505E-02  0.9844830E-12  0.0000000E+00  0.7295388E-10
 -0.1716362E-02  0.0000000E+00 -0.5050505E-02  0.8021247E-12  0.0000000E+00  0.7355648E-10
 -0.1025842E-02  0.0000000E+00 -0.5050505E-02  0.6129176E-12  0.0000000E+00  0.7403399E-10
  0.2367855E-03  0.0000000E+00 -0.5050505E-02  0.4186915E-12  0.0000000E+00  0.7438185E-10
  0.1499413E-02  0.0000000E+00 -0.5050505E-02  0.2225076E-12  0.0000000E+00  0.7459774E-10
  0.2762042E-02  0.0000000E+00 -0.5050505E-02  0.2970938E-13  0.0000000E+00  0.7468441E-10
 -0.5050505E-02  0.0000000E+00 -0.5050505E-02 -0.1307803E-12  0.0000000E+00  0.7465247E-10
 -0.5050505E-02  0.0000000E+00 -0.5050505E-02 -0.3016068E-12  0.0000000E+00  0.7450545E-10
 -0.5050505E-02  0.0000000E+00 -0.5050505E-02 -0.5050170E-12  0.0000000E+00  0.7423142E-10
 -0.5050505E-02  0.0000000E+00 -0.5050505E-02 -0.7039364E-12  0.0000000E+00  0.7382332E-10
 -0.5050505E-02  0.0000000E+00 -0.5050505E-02 -0.8941006E-12  0.0000000E+00  0.7328488E-10
 -0.5050505E-02  0.0000000E+00 -0.5050505E-02 -0.1077422E-11  0.0000000E+00  0.7262103E-10
 -0.5050505E-02  0.0000000E+00 -0.5050505E-02 -0.1256121E-11  0.0000000E+00  0.7183564E-10
 -0.5050504E-02  0.0000000E+00 -0.5050505E-02 -0.1431583E-11  0.0000000E+00  0.7093100E-10
 -0.5050501E-02  0.0000000E+00 -0.5050505E-02 -0.1602555E-11  0.0000000E+00  0.6990872E-10
 -0.5050495E-02  0.0000000E+00 -0.5050505E-02 -0.1764258E-11  0.0000000E+00  0.6877310E-10
 -0.5050482E-02  0.0000000E+00 -0.5050505E-02 -0.1917020E-11  0.0000000E+00  0.6753088E-10
 -0.5050449E-02  0.0000000E+00 -0.5050505E-02 -0.2061454E-11  0.0000000E+00  0.6618832E-10
 -0.5050376E-02  0.0000000E+00 -0.5050505E-02 -0.2197978E-11  0.0000000E+00  0.6475101E-10
 -0.5050299E-02  0.0000000E+00 -0.5050505E-02 -0.2326359E-11  0.0000000E+00  0.6322419E-10
 -0.5050178E-02  0.0000000E+00 -0.5050505E-02 -0.2445537E-11  0.0000000E+00  0.6161341E-10
 -0.5050018E-02  0.0000000E+00 -0.5050505E-02 -0.2553660E-11  0.0000000E+00  0.5992552E-10
 -0.5049710E-02  0.0000000E+00 -0.5050505E-02 -0.2650967E-11  0.0000000E+00  0.5816808E-10
 -0.5049253E-02  0.0000000E+00 -0.5050505E-02 -0.2737601E-11  0.0000000E+00  0.5634849E-10
 -0.5048636E-02  0.0000000E+00 -0.5050505E-02 -0.2813351E-11  0.0000000E+00  0.5447401E-10
 -0.5047442E-02  0.0000000E+00 -0.5050505E-02 -0.2877806E-11  0.0000000E+00  0.5255201E-10
 -0.5045727E-02  0.0000000E+00 -0.5050505E-02 -0.2930340E-11  0.0000000E+00  0.5059034E-10
 -0.5043261E-02  0.0000000E+00 -0.5050505E-02 -0.2971102E-11  0.0000000E+00  0.4859708E-10
 -0.5038714E-02  0.0000000E+00 -0.5050505E-02 -0.3000032E-11  0.0000000E+00  0.4658022E-10
 -0.5032318E-02  0.0000000E+00 -0.5050505E-02 -0.3017115E-11  0.0000000E+00  0.4454773E-10
 -0.5022454E-02  0.0000000E+00 -0.5050505E-02 -0.3022187E-11  0.0000000E+00  0.4250770E-10
 -0.5012589E-02  0.0000000E+00 -0.5050505E-02 -0.3015405E-11  0.0000000E+00  0.4046821E-10
 -0.5002725E-02  0.0000000E+00 -0.5050505E-02 -0.2996835E-11  0.0000000E+00  0.3843724E-10
 -0.4992860E-02  0.0000000E+00 -0.5050505E-02 -0.2966620E-11  0.0000000E+00  0.3642276E-10
 -0.4976523E-02  0.0000000E+00 -0.5050505E-02 -0.2925036E-11  0.0000000E+00  0.3443253E-10
 -0.4956794E-02  0.0000000E+00 -0.5050505E-02 -0.2872286E-11  0.0000000E+00  0.3247414E-10
 -0.4937066E-02  0.0000000E+00 -0.5050505E-02 -0.2808689E-11  0.0000000E+00  0.3055507E-10
 -0.4906239E-02  0.0000000E+00 -0.5050505E-02 -0.2734493E-11  0.0000000E+00  0.2868259E-10
 -0.4866782E-02  0.0000000E+00 -0.5050505E-02 -0.2650107E-11  0.0000000E+00  0.2686366E-10
 -0.4827325E-02  0.0000000E+00 -0.5050505E-02 -0.2555870E-11  0.0000000E+00  0.2510509E-10
 -0.4769372E-02  0.0000000E+00 -0.5050505E-02 -0.2452213E-11  0.0000000E+00  0.2341341E-10
 -0.4690458E-02  0.0000000E+00 -0.5050505E-02 -0.2339608E-11  0.0000000E+00  0.2179477E-10
 -0.4611543E-02  0.0000000E+00 -0.5050505E-02 -0.2218450E-11  0.0000000E+00  0.2025514E-10
 -0.4503035E-02  0.0000000E+00 -0.5050505E-02 -0.2089209E-11  0.0000000E+00  0.1880008E-10
 -0.4345206E-02  0.0000000E+00 -0.5050505E-02 -0.1952432E-11  0.0000000E+00  0.1743489E-10
 -0.4187378E-02  0.0000000E+00 -0.5050505E-02 -0.1808506E-11  0.0000000E+00  0.1616452E-10
 -0.3985156E-02  0.0000000E+00 -0.5050505E-02 -0.1657955E-11  0.0000000E+00  0.1499355E-10
 -0.3669499E-02  0.0000000E+00 -0.5050505E-02 -0.1501039E-11  0.0000000E+00  0.1392637E-10
 -0.3353842E-02  0.0000000E+00 -0.5050505E-02 -0.1337961E-11  0.0000000E+00  0.1296704E-10
 -0.2978990E-02  0.0000000E+00 -0.5050505E-02 -0.1168480E-11  0.0000000E+00  0.1211948E-10
 -0.2347676E-02  0.0000000E+00 -0.5050505E-02 -0.9913857E-12  0.0000000E+00  0.1138748E-10
 -0.1716362E-02  0.0000000E+00 -0.5050505E-02 -0.8035969E-12  0.0000000E+00  0.1077454E-10
 -0.1025842E-02  0.0000000E+00 -0.5050505E-02 -0.5969358E-12  0.0000000E+00  0.1028205E-10
  0.2367855E-03  0.0000000E+00 -0.5050505E-02 -0.3505664E-12  0.0000000E+00  0.9899312E-11
  0.1499413E-02  0.0000000E+00 -0.5050505E-02 -0.8044096E-14  0.0000000E+00  0.9556811E-11
  0.5287294E-02  0.0000000E+00 -0.5050505E-02  0.5897076E-12  0.0000000E+00  0.8904432E-11
 -0.5050505E-02  0.0000000E+00 -0.5050505E-02  0.4763101E-13  0.0000000E+00  0.1575016E-10
 -0.5050505E-02  0.0000000E+00 -0.5050505E-02  0.3302848E-12  0.0000000E+00  0.1584645E-10
 -0.5050505E-02  0.0000000E+00 -0.5050505E-02  0.6810853E-12  0.0000000E+00  0.1606656E-10
 -0.5050505E-02  0.0000000E+00 -0.5050505E-02  0.1001056E-11  0.0000000E+00  0.1641770E-10
 -0.5050505E-02  0.0000000E+00 -0.5050505E-02  0.1305873E-11  0.0000000E+00  0.1689433E-10
 -0.5050505E-02  0.0000000E+00 -0.5050505E-02  0.1599476E-11  0.0000000E+00  0.1749278E-10
 -0.5050504E-02  0.0000000E+00 -0.5050505E-02  0.1883739E-11  0.0000000E+00  0.1820950E-10
 -0.5050501E-02  0.0000000E+00 -0.5050505E-02  0.2159166E-11  0.0000000E+00  0.1904098E-10
 -0.5050495E-02  0.0000000E+00 -0.5050505E-02  0.2425319E-11  0.0000000E+00  0.1998367E-10
 -0.5050482E-02  0.0000000E+00 -0.5050505E-02  0.2681769E-11  0.0000000E+00  0.2103372E-10
 -0.5050449E-02  0.0000000E+00 -0.5050505E-02  0.2927563E-11  0.0000000E+00  0.2218698E-10
 -0.5050376E-02  0.0000000E+00 -0.5050505E-02  0.3161891E-11  0.0000000E+00  0.2343891E-10
 -0.5050299E-02  0.0000000E+00 -0.5050505E-02  0.3383863E-11  0.0000000E+00  0.2478463E-10
 -0.5050178E-02  0.0000000E+00 -0.5050505E-02  0.3592571E-11  0.0000000E+00  0.2621888E-10
 -0.5050018E-02  0.0000000E+00 -0.5050505E-02  0.3787221E-11  0.0000000E+00  0.2773609E-10
 -0.5049710E-02  0.0000000E+00 -0.5050505E-02  0.3966928E-11  0.0000000E+00  0.2933027E-10
 -0.5049253E-02  0.0000000E+00 -0.5050505E-02  0.4130971E-11  0.0000000E+00  0.3099513E-10
 -0.5048636E-02  0.0000000E+00 -0.5050505E-02  0.4278601E-11  0.0000000E+00  0.3272409E-10
 -0.5047442E-02  0.0000000E+00 -0.5050505E-02  0.4409155E-11  0.0000000E+00  0.3451024E-10
 -0.5045727E-02  0.0000000E+00 -0.5050505E-02  0.4522017E-11  0.0000000E+00  0.3634642E-10
 -0.5043261E-02  0.0000000E+00 -0.5050505E-02  0.4616704E-11  0.0000000E+00  0.3822526E-10
 -0.5038714E-02  0.0000000E+00 -0.5050505E-02  0.4692681E-11  0.0000000E+00  0.4013912E-10
 -0.5032318E-02  0.0000000E+00 -0.5050505E-02  0.4749517E-11  0.0000000E+00  0.4208031E-10
 -0.5022454E-02  0.0000000E+00 -0.5050505E-02  0.4786870E-11  0.0000000E+00  0.4404082E-10
 -0.5012589E-02  0.0000000E+00 -0.5050505E-02  0.4804451E-11  0.0000000E+00  0.4601256E-10
 -0.5002725E-02  0.0000000E+00 -0.5050505E-02  0.4801969E-11  0.0000000E+00  0.4798734E-10
 -0.4992860E-02  0.0000000E+00 -0.5050505E-02  0.4779329E-11  0.0000000E+00  0.4995678E-10
 -0.4976523E-02  0.0000000E+00 -0.5050505E-02  0.4736686E-11  0.0000000E+00  0.5191260E-10
 -0.4956794E-02  0.0000000E+00 -0.5050505E-02  0.4674047E-11  0.0000000E+00  0.5384658E-10
 -0.4937066E-02  0.0000000E+00 -0.5050505E-02  0.4591375E-11  0.0000000E+00  0.5575048E-10
 -0.4906239E-02  0.0000000E+00 -0.5050505E-02  0.4488604E-11  0.0000000E+00  0.5761588E-10
 -0.4866782E-02  0.0000000E+00 -0.5050505E-02  0.4366737E-11  0.0000000E+00  0.5943456E-10
 -0.4827325E-02  0.0000000E+00 -0.5050505E-02  0.4226398E-11  0.0000000E+00  0.6119888E-10
 -0.4769372E-02  0.0000000E+00 -0.5050505E-02  0.4067652E-11  0.0000000E+00  0.6290148E-10
 -0.4690458E-02  0.0000000E+00 -0.5050505E-02  0.3890272E-11  0.0000000E+00  0.6453443E-10
 -0.4611543E-02  0.0000000E+00 -0.5050505E-02  0.3696516E-11  0.0000000E+00  0.6609018E-10
 -0.4503035E-02  0.0000000E+00 -0.5050505E-02  0.3488402E-11  0.0000000E+00  0.6756296E-10
 -0.4345206E-02  0.0000000E+00 -0.5050505E-02  0.3265640E-11  0.0000000E+00  0.6894806E-10
 -0.4187378E-02  0.0000000E+00 -0.5050505E-02  0.3024586E-11  0.0000000E+00  0.7023880E-10
 -0.3985156E-02  0.0000000E+00 -0.5050505E-02  0.2766935E-11  0.0000000E+00  0.7142655E-10
 -0.3669499E-02  0.0000000E+00 -0.5050505E-02  0.2495613E-11  0.0000000E+00  0.7250362E-10
 -0.3353842E-02  0.0000000E+00 -0.5050505E-02  0.2214789E-11  0.0000000E+00  0.7346439E-10
 -0.2978990E-02  0.0000000E+00 -0.5050505E-02  0.1929822E-11  0.0000000E+00  0.7430697E-10
 -0.2347676E-02  0.0000000E+00 -0.5050505E-02  0.1642069E-11  0.0000000E+00  0.7503371E-10
 -0.1716362E-02  0.0000000E+00 -0.5050505E-02  0.1339502E-11  0.0000000E+00  0.7564290E-10
 -0.1025842E-02  0.0000000E+00 -0.5050505E-02  0.1023897E-11  0.0000000E+00  0.7612708E-10
  0.2367855E-03  0.0000000E+00 -0.5050505E-02  0.6988415E-12  0.0000000E+00  0.7648008E-10
  0.1499413E-02  0.0000000E+00 -0.5050505E-02  0.3707920E-12  0.0000000E+00  0.7669866E-10
  0.2762042E-02  0.0000000E+00 -0.5050505E-02  0.5419303E-13  0.0000000E+00  0.7678715E-10
 -0.5050505E-02  0.0000000E+00 -0.5050505E-02 -0.2170478E-12  0.0000000E+00  0.7675639E-10
 -0.5050505E-02  0.0000000E+00 -0.5050505E-02 -0.5075230E-12  0.0000000E+00  0.7660714E-10
 -0.5050505E-02  0.0000000E+00 -0.5050505E-02 -0.8444634E-12  0.0000000E+00  0.7632818E-10
 -0.5050505E-02  0.0000000E+00 -0.5050505E-02 -0.1174709E-11  0.0000000E+00  0.7591466E-10
 -0.5050505E-02  0.0000000E+00 -0.5050505E-02 -0.1490835E-11  0.0000000E+00  0.7537055E-10
 -0.5050505E-02  0.0000000E+00 -0.5050505E-02 -0.1795119E-11  0.0000000E+00  0.7470142E-10
 -0.5050505E-02  0.0000000E+00 -0.5050505E-02 -0.2091475E-11  0.0000000E+00  0.7391182E-10
 -0.5050504E-02  0.0000000E+00 -0.5050505E-02 -0.2384335E-11  0.0000000E+00  0.7300310E-10
 -0.5050501E-02  0.0000000E+00 -0.5050505E-02 -0.2673695E-11  0.0000000E+00  0.7197294E-10
 -0.5050495E-02  0.0000000E+00 -0.5050505E-02 -0.2945990E-11  0.0000000E+00  0.7082397E-10
 -0.5050482E-02  0.0000000E+00 -0.5050505E-02 -0.3201755E-11  0.0000000E+00  0.6956502E-10
 -0.5050449E-02  0.0000000E+00 -0.5050505E-02 -0.3442787E-11  0.0000000E+00  0.6820401E-10
 -0.5050376E-02  0.0000000E+00 -0.5050505E-02 -0.3670422E-11  0.0000000E+00  0.6674740E-10
 -0.5050299E-02  0.0000000E+00 -0.5050505E-02 -0.3885453E-11  0.0000000E+00  0.6520004E-10
 -0.5050178E-02  0.0000000E+00 -0.5050505E-02 -0.4086186E-11  0.0000000E+00  0.6356608E-10
 -0.5050018E-02  0.0000000E+00 -0.5050505E-02 -0.4267682E-11  0.0000000E+00  0.6185215E-10
 -0.5049710E-02  0.0000000E+00 -0.5050505E-02 -0.4430463E-11  0.0000000E+00  0.6006698E-10
 -0.5049253E-02  0.0000000E+00 -0.5050505E-02 -0.4575261E-11  0.0000000E+00  0.5821858E-10
 -0.5048636E-02  0.0000000E+00 -0.5050505E-02 -0.4702263E-11  0.0000000E+00  0.5631413E-10
 -0.5047442E-02  0.0000000E+00 -0.5050505E-02 -0.4810584E-11  0.0000000E+00  0.5436075E-10
 -0.5045727E-02  0.0000000E+00 -0.5050505E-02 -0.4898724E-11  0.0000000E+00  0.5236645E-10
 -0.5043261E-02  0.0000000E+00 -0.5050505E-02 -0.4966995E-11  0.0000000E+00  0.5033975E-10
 -0.5038714E-02  0.0000000E+00 -0.5050505E-02 -0.5015598E-11  0.0000000E+00  0.4828882E-10
 -0.5032318E-02  0.0000000E+00 -0.5050505E-02 -0.5044413E-11  0.0000000E+00  0.4622166E-10
 -0.5022454E-02  0.0000000E+00 -0.5050505E-02 -0.5053040E-11  0.0000000E+00  0.4414655E-10
 -0.5012589E-02  0.0000000E+00 -0.5050505E-02 -0.5041797E-11  0.0000000E+00  0.4207182E-10
 -0.5002725E-02  0.0000000E+00 -0.5050505E-02 -0.5010834E-11  0.0000000E+00  0.4000566E-10
 -0.4992860E-02  0.0000000E+00 -0.5050505E-02 -0.4960351E-11  0.0000000E+00  0.3795613E-10
 -0.4976523E-02  0.0000000E+00 -0.5050505E-02 -0.4890846E-11  0.0000000E+00  0.3593122E-10
 -0.4956794E-02  0.0000000E+00 -0.5050505E-02 -0.4802661E-11  0.0000000E+00  0.3393871E-10
 -0.4937066E-02  0.0000000E+00 -0.5050505E-02 -0.4696263E-11  0.0000000E+00  0.3198622E-10
 -0.4906239E-02  0.0000000E+00 -0.5050505E-02 -0.4572174E-11  0.0000000E+00  0.3008114E-10
 -0.4866782E-02  0.0000000E+00 -0.5050505E-02 -0.4431053E-11  0.0000000E+00  0.2823062E-10
 -0.4827325E-02  0.0000000E+00 -0.5050505E-02 -0.4273408E-11  0.0000000E+00  0.2644158E-10
 -0.4769372E-02  0.0000000E+00 -0.5050505E-02 -0.4100098E-11  0.0000000E+00  0.2472058E-10
 -0.4690458E-02  0.0000000E+00 -0.5050505E-02 -0.3911742E-11  0.0000000E+00  0.2307398E-10
 -0.4611543E-02  0.0000000E+00 -0.5050505E-02 -0.3709105E-11  0.0000000E+00  0.2150781E-10
 -0.4503035E-02  0.0000000E+00 -0.5050505E-02 -0.3493033E-11  0.0000000E+00  0.2002774E-10
 -0.4345206E-02  0.0000000E+00 -0.5050505E-02 -0.3264277E-11  0.0000000E+00  0.1863912E-10
 -0.4187378E-02  0.0000000E+00 -0.5050505E-02 -0.3023700E-11  0.0000000E+00  0.1734696E-10
 -0.3985156E-02  0.0000000E+00 -0.5050505E-02 -0.2772035E-11  0.0000000E+00  0.1615595E-10
 -0.3669499E-02  0.0000000E+00 -0.5050505E-02 -0.2509931E-11  0.0000000E+00  0.1507034E-10
 -0.3353842E-02  0.0000000E+00 -0.5050505E-02 -0.2237884E-11  0.0000000E+00  0.1409406E-10
 -0.2978990E-02  0.0000000E+00 -0.5050505E-02 -0.1955909E-11  0.0000000E+00  0.1323060E-10
 -0.2347676E-02  0.0000000E+00 -0.5050505E-02 -0.1663335E-11  0.0000000E+00  0.1248279E-10
 -0.1716362E-02  0.0000000E+00 -0.5050505E-02 -0.1358123E-11  0.0000000E+00  0.1185220E-10
 -0.1025842E-02  0.0000000E+00 -0.5050505E-02 -0.1036563E-11  0.0000000E+00  0.1133703E-10
  0.2367855E-03  0.0000000E+00 -0.5050505E-02 -0.6938143E-12  0.0000000E+00  0.1092712E-10
  0.1499413E-02  0.0000000E+00 -0.5050505E-02 -0.3334205E-12  0.0000000E+00  0.1059520E-10
  0.5287294E-02  0.0000000E+00 -0.5050505E-02 -0.2175433E-13  0.0000000E+00  0.1030874E-10
 -0.5050505E-02  0.0000000E+00 -0.5050505E-02  0.8909947E-13  0.0000000E+00  0.1741732E-10
 -0.5050505E-02  0.0000000E+00 -0.5050505E-02  0.4851103E-12  0.0000000E+00  0.1752056E-10
 -0.5050505E-02  0.0000000E+00 -0.5050505E-02  0.9687706E-12  0.0000000E+00  0.1775114E-10
 -0.5050505E-02  0.0000000E+00 -0.5050505E-02  0.1414655E-11  0.0000000E+00  0.1811471E-10
 -0.5050505E-02  0.0000000E+00 -0.5050505E-02  0.1841728E-11  0.0000000E+00  0.1860588E-10
 -0.5050505E-02  0.0000000E+00 -0.5050505E-02  0.2254279E-11  0.0000000E+00  0.1922117E-10
 -0.5050504E-02  0.0000000E+00 -0.5050505E-02  0.2654162E-11  0.0000000E+00  0.1995733E-10
 -0.5050501E-02  0.0000000E+00 -0.5050505E-02  0.3041807E-11  0.0000000E+00  0.2081100E-10
 -0.5050495E-02  0.0000000E+00 -0.5050505E-02  0.3416571E-11  0.0000000E+00  0.2177859E-10
 -0.5050482E-02  0.0000000E+00 -0.5050505E-02  0.3777649E-11  0.0000000E+00  0.2285620E-10
 -0.5050449E-02  0.0000000E+00 -0.5050505E-02  0.4123821E-11  0.0000000E+00  0.2403960E-10
 -0.5050376E-02  0.0000000E+00 -0.5050505E-02  0.4453860E-11  0.0000000E+00  0.2532422E-10
 -0.5050299E-02  0.0000000E+00 -0.5050505E-02  0.4766466E-11  0.0000000E+00  0.2670502E-10
 -0.5050178E-02  0.0000000E+00 -0.5050505E-02  0.5060494E-11  0.0000000E+00  0.2817665E-10
 -0.5050018E-02  0.0000000E+00 -0.5050505E-02  0.5334672E-11  0.0000000E+00  0.2973338E-10
 -0.5049710E-02  0.0000000E+00 -0.5050505E-02  0.5587832E-11  0.0000000E+00  0.3136909E-10
 -0.5049253E-02  0.0000000E+00 -0.5050505E-02  0.5818889E-11  0.0000000E+00  0.3307732E-10
 -0.5048636E-02  0.0000000E+00 -0.5050505E-02  0.6026875E-11  0.0000000E+00  0.3485129E-10
 -0.5047442E-02  0.0000000E+00 -0.5050505E-02  0.6210717E-11  0.0000000E+00  0.3668392E-10
 -0.5045727E-02  0.0000000E+00 -0.5050505E-02  0.6369625E-11  0.0000000E+00  0.3856778E-10
 -0.5043261E-02  0.0000000E+00 -0.5050505E-02  0.6502890E-11  0.0000000E+00  0.4049525E-10
 -0.5038714E-02  0.0000000E+00 -0.5050505E-02  0.6609854E-11  0.0000000E+00  0.4245863E-10
 -0.5032318E-02  0.0000000E+00 -0.5050505E-02  0.6689822E-11  0.0000000E+00  0.4444984E-10
 -0.5022454E-02  0.0000000E+00 -0.5050505E-02  0.6742313E-11  0.0000000E+00  0.4646075E-10
 -0.5012589E-02  0.0000000E+00 -0.5050505E-02  0.6766974E-11  0.0000000E+00  0.4848309E-10
 -0.5002725E-02  0.0000000E+00 -0.5050505E-02  0.6763220E-11  0.0000000E+00  0.5050831E-10
 -0.4992860E-02  0.0000000E+00 -0.5050505E-02  0.6730882E-11  0.0000000E+00  0.5252769E-10
 -0.4976523E-02  0.0000000E+00 -0.5050505E-02  0.6670270E-11  0.0000000E+00  0.5453251E-10
 -0.4956794E-02  0.0000000E+00 -0.5050505E-02  0.6581760E-11  0.0000000E+00  0.5651449E-10
 -0.4937066E-02  0.0000000E+00 -0.5050505E-02  0.6464887E-11  0.0000000E+00  0.5846531E-10