title = "dataset feddes"
variables = "x", "y", "z", "vx", "vy", "vz"
zone t = "velocities, solution time =  1.300E+01 days        " i =   99, j =   99, k =    1,  f=point
 -0.5050505E-02  0.0000000E+00 -0.5050505E-02 -0.3299046E-14  0.0000000E+00 -0.7833452E-10
 -0.5050505E-02  0.0000000E+00 -0.5050505E-02  0.1191405E-13  0.0000000E+00 -0.7832591E-10
 -0.5050505E-02  0.0000000E+00 -0.5050505E-02  0.2917406E-13  0.0000000E+00 -0.7828482E-10
 -0.5050505E-02  0.0000000E+00 -0.5050505E-02  0.4452212E-13  0.0000000E+00 -0.7821112E-10
 -0.5050505E-02  0.0000000E+00 -0.5050505E-02  0.5894795E-13  0.0000000E+00 -0.7810765E-10
 -0.5050505E-02  0.0000000E+00 -0.5050505E-02  0.7270647E-13  0.0000000E+00 -0.7797600E-10
 -0.5050504E-02  0.0000000E+00 -0.5050505E-02  0.8593265E-13  0.0000000E+00 -0.7781736E-10
 -0.5050501E-02  0.0000000E+00 -0.5050505E-02  0.9874644E-13  0.0000000E+00 -0.7763268E-10
 -0.5050495E-02  0.0000000E+00 -0.5050505E-02  0.1111254E-12  0.0000000E+00 -0.7742281E-10
 -0.5050482E-02  0.0000000E+00 -0.5050505E-02  0.1230319E-12  0.0000000E+00 -0.7718865E-10
 -0.5050449E-02  0.0000000E+00 -0.5050505E-02  0.1344661E-12  0.0000000E+00 -0.7693115E-10
 -0.5050376E-02  0.0000000E+00 -0.5050505E-02  0.1454129E-12  0.0000000E+00 -0.7665127E-10
 -0.5050299E-02  0.0000000E+00 -0.5050505E-02  0.1557599E-12  0.0000000E+00 -0.7635010E-10
 -0.5050178E-02  0.0000000E+00 -0.5050505E-02  0.1655371E-12  0.0000000E+00 -0.7602880E-10
 -0.5050018E-02  0.0000000E+00 -0.5050505E-02  0.1746845E-12  0.0000000E+00 -0.7568858E-10
 -0.5049710E-02  0.0000000E+00 -0.5050505E-02  0.1831345E-12  0.0000000E+00 -0.7533076E-10
 -0.5049253E-02  0.0000000E+00 -0.5050505E-02  0.1909098E-12  0.0000000E+00 -0.7495672E-10
 -0.5048636E-02  0.0000000E+00 -0.5050505E-02  0.1979128E-12  0.0000000E+00 -0.7456790E-10
 -0.5047442E-02  0.0000000E+00 -0.5050505E-02  0.2041809E-12  0.0000000E+00 -0.7416580E-10
 -0.5045727E-02  0.0000000E+00 -0.5050505E-02  0.2095944E-12  0.0000000E+00 -0.7375203E-10
 -0.5043261E-02  0.0000000E+00 -0.5050505E-02  0.2141905E-12  0.0000000E+00 -0.7332824E-10
 -0.5038714E-02  0.0000000E+00 -0.5050505E-02  0.2179470E-12  0.0000000E+00 -0.7289611E-10
 -0.5032318E-02  0.0000000E+00 -0.5050505E-02  0.2207886E-12  0.0000000E+00 -0.7245737E-10
 -0.5022454E-02  0.0000000E+00 -0.5050505E-02  0.2227606E-12  0.0000000E+00 -0.7201382E-10
 -0.5012589E-02  0.0000000E+00 -0.5050505E-02  0.2237878E-12  0.0000000E+00 -0.7156727E-10
 -0.5002725E-02  0.0000000E+00 -0.5050505E-02  0.2239002E-12  0.0000000E+00 -0.7111958E-10
 -0.4992860E-02  0.0000000E+00 -0.5050505E-02  0.2230605E-12  0.0000000E+00 -0.7067262E-10
 -0.4976523E-02  0.0000000E+00 -0.5050505E-02  0.2212835E-12  0.0000000E+00 -0.7022828E-10
 -0.4956794E-02  0.0000000E+00 -0.5050505E-02  0.2185543E-12  0.0000000E+00 -0.6978844E-10
 -0.4937066E-02  0.0000000E+00 -0.5050505E-02  0.2149028E-12  0.0000000E+00 -0.6935498E-10
 -0.4906239E-02  0.0000000E+00 -0.5050505E-02  0.2102992E-12  0.0000000E+00 -0.6892978E-10
 -0.4866782E-02  0.0000000E+00 -0.5050505E-02  0.2047658E-12  0.0000000E+00 -0.6851472E-10
 -0.4827325E-02  0.0000000E+00 -0.5050505E-02  0.1983626E-12  0.0000000E+00 -0.6811159E-10
 -0.4769372E-02  0.0000000E+00 -0.5050505E-02  0.1910372E-12  0.0000000E+00 -0.6772219E-10
 -0.4690458E-02  0.0000000E+00 -0.5050505E-02  0.1828796E-12  0.0000000E+00 -0.6734827E-10
 -0.4611543E-02  0.0000000E+00 -0.5050505E-02  0.1738972E-12  0.0000000E+00 -0.6699150E-10
 -0.4503035E-02  0.0000000E+00 -0.5050505E-02  0.1641125E-12  0.0000000E+00 -0.6665349E-10
 -0.4345206E-02  0.0000000E+00 -0.5050505E-02  0.1535556E-12  0.0000000E+00 -0.6633582E-10
 -0.4187378E-02  0.0000000E+00 -0.5050505E-02  0.1423238E-12  0.0000000E+00 -0.6603994E-10
 -0.3985156E-02  0.0000000E+00 -0.5050505E-02  0.1303723E-12  0.0000000E+00 -0.6576724E-10
 -0.3669499E-02  0.0000000E+00 -0.5050505E-02  0.1178359E-12  0.0000000E+00 -0.6551903E-10
 -0.3353842E-02  0.0000000E+00 -0.5050505E-02  0.1046772E-12  0.0000000E+00 -0.6529652E-10
 -0.2978990E-02  0.0000000E+00 -0.5050505E-02  0.9095619E-13  0.0000000E+00 -0.6510089E-10
 -0.2347676E-02  0.0000000E+00 -0.5050505E-02  0.7672531E-13  0.0000000E+00 -0.6493321E-10
 -0.1716362E-02  0.0000000E+00 -0.5050505E-02  0.6197707E-13  0.0000000E+00 -0.6479450E-10
 -0.1025842E-02  0.0000000E+00 -0.5050505E-02  0.4683145E-13  0.0000000E+00 -0.6468570E-10
  0.2367855E-03  0.0000000E+00 -0.5050505E-02  0.3138592E-13  0.0000000E+00 -0.6460748E-10
  0.1499413E-02  0.0000000E+00 -0.5050505E-02  0.1589540E-13  0.0000000E+00 -0.6456020E-10
  0.2762042E-02  0.0000000E+00 -0.5050505E-02  0.3434007E-14  0.0000000E+00 -0.6454087E-10
 -0.5050505E-02  0.0000000E+00 -0.5050505E-02 -0.1020455E-13  0.0000000E+00 -0.6454764E-10
 -0.5050505E-02  0.0000000E+00 -0.5050505E-02 -0.2665479E-13  0.0000000E+00 -0.6458450E-10
 -0.5050505E-02  0.0000000E+00 -0.5050505E-02 -0.4273764E-13  0.0000000E+00 -0.6465389E-10
 -0.5050505E-02  0.0000000E+00 -0.5050505E-02 -0.5818317E-13  0.0000000E+00 -0.6475481E-10
 -0.5050505E-02  0.0000000E+00 -0.5050505E-02 -0.7305137E-13  0.0000000E+00 -0.6488605E-10
 -0.5050505E-02  0.0000000E+00 -0.5050505E-02 -0.8750719E-13  0.0000000E+00 -0.6504660E-10
 -0.5050505E-02  0.0000000E+00 -0.5050505E-02 -0.1014756E-12  0.0000000E+00 -0.6523559E-10
 -0.5050504E-02  0.0000000E+00 -0.5050505E-02 -0.1149942E-12  0.0000000E+00 -0.6545206E-10
 -0.5050501E-02  0.0000000E+00 -0.5050505E-02 -0.1280105E-12  0.0000000E+00 -0.6569506E-10
 -0.5050495E-02  0.0000000E+00 -0.5050505E-02 -0.1404269E-12  0.0000000E+00 -0.6596350E-10
 -0.5050482E-02  0.0000000E+00 -0.5050505E-02 -0.1522810E-12  0.0000000E+00 -0.6625621E-10
 -0.5050449E-02  0.0000000E+00 -0.5050505E-02 -0.1634302E-12  0.0000000E+00 -0.6657192E-10
 -0.5050376E-02  0.0000000E+00 -0.5050505E-02 -0.1739047E-12  0.0000000E+00 -0.6690925E-10
 -0.5050299E-02  0.0000000E+00 -0.5050505E-02 -0.1835919E-12  0.0000000E+00 -0.6726675E-10
 -0.5050178E-02  0.0000000E+00 -0.5050505E-02 -0.1925368E-12  0.0000000E+00 -0.6764288E-10
 -0.5050018E-02  0.0000000E+00 -0.5050505E-02 -0.2006345E-12  0.0000000E+00 -0.6803605E-10
 -0.5049710E-02  0.0000000E+00 -0.5050505E-02 -0.2078999E-12  0.0000000E+00 -0.6844458E-10
 -0.5049253E-02  0.0000000E+00 -0.5050505E-02 -0.2143105E-12  0.0000000E+00 -0.6886679E-10
 -0.5048636E-02  0.0000000E+00 -0.5050505E-02 -0.2198139E-12  0.0000000E+00 -0.6930092E-10
 -0.5047442E-02  0.0000000E+00 -0.5050505E-02 -0.2244251E-12  0.0000000E+00 -0.6974516E-10
 -0.5045727E-02  0.0000000E+00 -0.5050505E-02 -0.2281215E-12  0.0000000E+00 -0.7019770E-10
 -0.5043261E-02  0.0000000E+00 -0.5050505E-02 -0.2309257E-12  0.0000000E+00 -0.7065675E-10
 -0.5038714E-02  0.0000000E+00 -0.5050505E-02 -0.2327852E-12  0.0000000E+00 -0.7112046E-10
 -0.5032318E-02  0.0000000E+00 -0.5050505E-02 -0.2337599E-12  0.0000000E+00 -0.7158701E-10
 -0.5022454E-02  0.0000000E+00 -0.5050505E-02 -0.2338199E-12  0.0000000E+00 -0.7205459E-10
 -0.5012589E-02  0.0000000E+00 -0.5050505E-02 -0.2330026E-12  0.0000000E+00 -0.7252141E-10
 -0.5002725E-02  0.0000000E+00 -0.5050505E-02 -0.2313081E-12  0.0000000E+00 -0.7298572E-10
 -0.4992860E-02  0.0000000E+00 -0.5050505E-02 -0.2287663E-12  0.0000000E+00 -0.7344579E-10
 -0.4976523E-02  0.0000000E+00 -0.5050505E-02 -0.2254148E-12  0.0000000E+00 -0.7389998E-10
 -0.4956794E-02  0.0000000E+00 -0.5050505E-02 -0.2212760E-12  0.0000000E+00 -0.7434667E-10
 -0.4937066E-02  0.0000000E+00 -0.5050505E-02 -0.2163649E-12  0.0000000E+00 -0.7478431E-10
 -0.4906239E-02  0.0000000E+00 -0.5050505E-02 -0.2107715E-12  0.0000000E+00 -0.7521144E-10
 -0.4866782E-02  0.0000000E+00 -0.5050505E-02 -0.2045034E-12  0.0000000E+00 -0.7562672E-10
 -0.4827325E-02  0.0000000E+00 -0.5050505E-02 -0.1976578E-12  0.0000000E+00 -0.7602888E-10
 -0.4769372E-02  0.0000000E+00 -0.5050505E-02 -0.1902875E-12  0.0000000E+00 -0.7641682E-10
 -0.4690458E-02  0.0000000E+00 -0.5050505E-02 -0.1824897E-12  0.0000000E+00 -0.7678960E-10
 -0.4611543E-02  0.0000000E+00 -0.5050505E-02 -0.1743921E-12  0.0000000E+00 -0.7714648E-10
 -0.4503035E-02  0.0000000E+00 -0.5050505E-02 -0.1661519E-12  0.0000000E+00 -0.7748703E-10
 -0.4345206E-02  0.0000000E+00 -0.5050505E-02 -0.1580393E-12  0.0000000E+00 -0.7781122E-10
 -0.4187378E-02  0.0000000E+00 -0.5050505E-02 -0.1503540E-12  0.0000000E+00 -0.7811961E-10
 -0.3985156E-02  0.0000000E+00 -0.5050505E-02 -0.1437334E-12  0.0000000E+00 -0.7841370E-10
 -0.3669499E-02  0.0000000E+00 -0.5050505E-02 -0.1391597E-12  0.0000000E+00 -0.7869659E-10
 -0.3353842E-02  0.0000000E+00 -0.5050505E-02 -0.1384999E-12  0.0000000E+00 -0.7897425E-10
 -0.2978990E-02  0.0000000E+00 -0.5050505E-02 -0.1453755E-12  0.0000000E+00 -0.7925813E-10
 -0.2347676E-02  0.0000000E+00 -0.5050505E-02 -0.1678240E-12  0.0000000E+00 -0.7957133E-10
 -0.1716362E-02  0.0000000E+00 -0.5050505E-02 -0.2250024E-12  0.0000000E+00 -0.7996415E-10
 -0.1025842E-02  0.0000000E+00 -0.5050505E-02 -0.3679711E-12  0.0000000E+00 -0.8055713E-10
  0.2367855E-03  0.0000000E+00 -0.5050505E-02 -0.7485085E-12  0.0000000E+00 -0.8167361E-10
  0.1499413E-02  0.0000000E+00 -0.5050505E-02 -0.1866023E-11  0.0000000E+00 -0.8428814E-10
  0.5287294E-02  0.0000000E+00 -0.5050505E-02 -0.2990396E-10  0.0000000E+00 -0.6743355E-10
 -0.5050505E-02  0.0000000E+00 -0.5050505E-02 -0.4275743E-14  0.0000000E+00 -0.7814640E-10
 -0.5050505E-02  0.0000000E+00 -0.5050505E-02  0.3737528E-13  0.0000000E+00 -0.7813048E-10
 -0.5050505E-02  0.0000000E+00 -0.5050505E-02  0.8895389E-13  0.0000000E+00 -0.7808609E-10
 -0.5050505E-02  0.0000000E+00 -0.5050505E-02  0.1344379E-12  0.0000000E+00 -0.7800968E-10
 -0.5050505E-02  0.0000000E+00 -0.5050505E-02  0.1774862E-12  0.0000000E+00 -0.7790412E-10
 -0.5050505E-02  0.0000000E+00 -0.5050505E-02  0.2187115E-12  0.0000000E+00 -0.7777049E-10
 -0.5050504E-02  0.0000000E+00 -0.5050505E-02  0.2584427E-12  0.0000000E+00 -0.7760972E-10
 -0.5050501E-02  0.0000000E+00 -0.5050505E-02  0.2969414E-12  0.0000000E+00 -0.7742266E-10
 -0.5050495E-02  0.0000000E+00 -0.5050505E-02  0.3341329E-12  0.0000000E+00 -0.7721015E-10
 -0.5050482E-02  0.0000000E+00 -0.5050505E-02  0.3699499E-12  0.0000000E+00 -0.7697306E-10
 -0.5050449E-02  0.0000000E+00 -0.5050505E-02  0.4043551E-12  0.0000000E+00 -0.7671231E-10
 -0.5050376E-02  0.0000000E+00 -0.5050505E-02  0.4372143E-12  0.0000000E+00 -0.7642892E-10
 -0.5050299E-02  0.0000000E+00 -0.5050505E-02  0.4683627E-12  0.0000000E+00 -0.7612400E-10
 -0.5050178E-02  0.0000000E+00 -0.5050505E-02  0.4977633E-12  0.0000000E+00 -0.7579866E-10
 -0.5050018E-02  0.0000000E+00 -0.5050505E-02  0.5252516E-12  0.0000000E+00 -0.7545418E-10
 -0.5049710E-02  0.0000000E+00 -0.5050505E-02  0.5507007E-12  0.0000000E+00 -0.7509185E-10
 -0.5049253E-02  0.0000000E+00 -0.5050505E-02  0.5740584E-12  0.0000000E+00 -0.7471308E-10
 -0.5048636E-02  0.0000000E+00 -0.5050505E-02  0.5951526E-12  0.0000000E+00 -0.7431933E-10
 -0.5047442E-02  0.0000000E+00 -0.5050505E-02  0.6139539E-12  0.0000000E+00 -0.7391215E-10
 -0.5045727E-02  0.0000000E+00 -0.5050505E-02  0.6302824E-12  0.0000000E+00 -0.7349314E-10
 -0.5043261E-02  0.0000000E+00 -0.5050505E-02  0.6441311E-12  0.0000000E+00 -0.7306392E-10
 -0.5038714E-02  0.0000000E+00 -0.5050505E-02  0.6553954E-12  0.0000000E+00 -0.7262624E-10
 -0.5032318E-02  0.0000000E+00 -0.5050505E-02  0.6639855E-12  0.0000000E+00 -0.7218186E-10
 -0.5022454E-02  0.0000000E+00 -0.5050505E-02  0.6698866E-12  0.0000000E+00 -0.7173260E-10
 -0.5012589E-02  0.0000000E+00 -0.5050505E-02  0.6730237E-12  0.0000000E+00 -0.7128027E-10
 -0.5002725E-02  0.0000000E+00 -0.5050505E-02  0.6733450E-12  0.0000000E+00 -0.7082677E-10
 -0.4992860E-02  0.0000000E+00 -0.5050505E-02  0.6708351E-12  0.0000000E+00 -0.7037400E-10
 -0.4976523E-02  0.0000000E+00 -0.5050505E-02  0.6654868E-12  0.0000000E+00 -0.6992387E-10
 -0.4956794E-02  0.0000000E+00 -0.5050505E-02  0.6573150E-12  0.0000000E+00 -0.6947827E-10
 -0.4937066E-02  0.0000000E+00 -0.5050505E-02  0.6463122E-12  0.0000000E+00 -0.6903912E-10
 -0.4906239E-02  0.0000000E+00 -0.5050505E-02  0.6324858E-12  0.0000000E+00 -0.6860834E-10
 -0.4866782E-02  0.0000000E+00 -0.5050505E-02  0.6158807E-12  0.0000000E+00 -0.6818777E-10
 -0.4827325E-02  0.0000000E+00 -0.5050505E-02  0.5965867E-12  0.0000000E+00 -0.6777929E-10
 -0.4769372E-02  0.0000000E+00 -0.5050505E-02  0.5746183E-12  0.0000000E+00 -0.6738470E-10
 -0.4690458E-02  0.0000000E+00 -0.5050505E-02  0.5500581E-12  0.0000000E+00 -0.6700576E-10
 -0.4611543E-02  0.0000000E+00 -0.5050505E-02  0.5230403E-12  0.0000000E+00 -0.6664421E-10
 -0.4503035E-02  0.0000000E+00 -0.5050505E-02  0.4936173E-12  0.0000000E+00 -0.6630167E-10
 -0.4345206E-02  0.0000000E+00 -0.5050505E-02  0.4619086E-12  0.0000000E+00 -0.6597969E-10
 -0.4187378E-02  0.0000000E+00 -0.5050505E-02  0.4281084E-12  0.0000000E+00 -0.6567977E-10
 -0.3985156E-02  0.0000000E+00 -0.5050505E-02  0.3922166E-12  0.0000000E+00 -0.6540331E-10
 -0.3669499E-02  0.0000000E+00 -0.5050505E-02  0.3544650E-12  0.0000000E+00 -0.6515165E-10
 -0.3353842E-02  0.0000000E+00 -0.5050505E-02  0.3149206E-12  0.0000000E+00 -0.6492604E-10
 -0.2978990E-02  0.0000000E+00 -0.5050505E-02  0.2736657E-12  0.0000000E+00 -0.6472762E-10
 -0.2347676E-02  0.0000000E+00 -0.5050505E-02  0.2308347E-12  0.0000000E+00 -0.6455754E-10
 -0.1716362E-02  0.0000000E+00 -0.5050505E-02  0.1864351E-12  0.0000000E+00 -0.6441690E-10
 -0.1025842E-02  0.0000000E+00 -0.5050505E-02  0.1407882E-12  0.0000000E+00 -0.6430668E-10
  0.2367855E-03  0.0000000E+00 -0.5050505E-02  0.9434934E-13  0.0000000E+00 -0.6422754E-10
  0.1499413E-02  0.0000000E+00 -0.5050505E-02  0.4844700E-13  0.0000000E+00 -0.6417904E-10
  0.2762042E-02  0.0000000E+00 -0.5050505E-02  0.1053184E-13  0.0000000E+00 -0.6415861E-10
 -0.5050505E-02  0.0000000E+00 -0.5050505E-02 -0.3118490E-13  0.0000000E+00 -0.6416576E-10
 -0.5050505E-02  0.0000000E+00 -0.5050505E-02 -0.8020165E-13  0.0000000E+00 -0.6420363E-10
 -0.5050505E-02  0.0000000E+00 -0.5050505E-02 -0.1284335E-12  0.0000000E+00 -0.6427387E-10
 -0.5050505E-02  0.0000000E+00 -0.5050505E-02 -0.1748351E-12  0.0000000E+00 -0.6437587E-10
 -0.5050505E-02  0.0000000E+00 -0.5050505E-02 -0.2196380E-12  0.0000000E+00 -0.6450861E-10
 -0.5050505E-02  0.0000000E+00 -0.5050505E-02 -0.2630666E-12  0.0000000E+00 -0.6467110E-10
 -0.5050505E-02  0.0000000E+00 -0.5050505E-02 -0.3051282E-12  0.0000000E+00 -0.6486239E-10
 -0.5050504E-02  0.0000000E+00 -0.5050505E-02 -0.3458004E-12  0.0000000E+00 -0.6508160E-10
 -0.5050501E-02  0.0000000E+00 -0.5050505E-02 -0.3849042E-12  0.0000000E+00 -0.6532766E-10
 -0.5050495E-02  0.0000000E+00 -0.5050505E-02 -0.4223270E-12  0.0000000E+00 -0.6559952E-10
 -0.5050482E-02  0.0000000E+00 -0.5050505E-02 -0.4578977E-12  0.0000000E+00 -0.6589597E-10
 -0.5050449E-02  0.0000000E+00 -0.5050505E-02 -0.4914737E-12  0.0000000E+00 -0.6621570E-10
 -0.5050376E-02  0.0000000E+00 -0.5050505E-02 -0.5229285E-12  0.0000000E+00 -0.6655732E-10
 -0.5050299E-02  0.0000000E+00 -0.5050505E-02 -0.5521273E-12  0.0000000E+00 -0.6691940E-10
 -0.5050178E-02  0.0000000E+00 -0.5050505E-02 -0.5789808E-12  0.0000000E+00 -0.6730036E-10
 -0.5050018E-02  0.0000000E+00 -0.5050505E-02 -0.6033468E-12  0.0000000E+00 -0.6769855E-10
 -0.5049710E-02  0.0000000E+00 -0.5050505E-02 -0.6252030E-12  0.0000000E+00 -0.6811233E-10
 -0.5049253E-02  0.0000000E+00 -0.5050505E-02 -0.6444599E-12  0.0000000E+00 -0.6853995E-10
 -0.5048636E-02  0.0000000E+00 -0.5050505E-02 -0.6610052E-12  0.0000000E+00 -0.6897960E-10
 -0.5047442E-02  0.0000000E+00 -0.5050505E-02 -0.6748912E-12  0.0000000E+00 -0.6942952E-10
 -0.5045727E-02  0.0000000E+00 -0.5050505E-02 -0.6859986E-12  0.0000000E+00 -0.6988785E-10
 -0.5043261E-02  0.0000000E+00 -0.5050505E-02 -0.6943871E-12  0.0000000E+00 -0.7035273E-10
 -0.5038714E-02  0.0000000E+00 -0.5050505E-02 -0.7000117E-12  0.0000000E+00 -0.7082231E-10
 -0.5032318E-02  0.0000000E+00 -0.5050505E-02 -0.7029100E-12  0.0000000E+00 -0.7129476E-10
 -0.5022454E-02  0.0000000E+00 -0.5050505E-02 -0.7030893E-12  0.0000000E+00 -0.7176823E-10
 -0.5012589E-02  0.0000000E+00 -0.5050505E-02 -0.7006169E-12  0.0000000E+00 -0.7224091E-10
 -0.5002725E-02  0.0000000E+00 -0.5050505E-02 -0.6955300E-12  0.0000000E+00 -0.7271105E-10
 -0.4992860E-02  0.0000000E+00 -0.5050505E-02 -0.6878513E-12  0.0000000E+00 -0.7317686E-10
 -0.4976523E-02  0.0000000E+00 -0.5050505E-02 -0.6777598E-12  0.0000000E+00 -0.7363666E-10
 -0.4956794E-02  0.0000000E+00 -0.5050505E-02 -0.6652855E-12  0.0000000E+00 -0.7408884E-10
 -0.4937066E-02  0.0000000E+00 -0.5050505E-02 -0.6505105E-12  0.0000000E+00 -0.7453181E-10
 -0.4906239E-02  0.0000000E+00 -0.5050505E-02 -0.6336441E-12  0.0000000E+00 -0.7496409E-10
 -0.4866782E-02  0.0000000E+00 -0.5050505E-02 -0.6147833E-12  0.0000000E+00 -0.7538430E-10
 -0.4827325E-02  0.0000000E+00 -0.5050505E-02 -0.5941149E-12  0.0000000E+00 -0.7579114E-10
 -0.4769372E-02  0.0000000E+00 -0.5050505E-02 -0.5719002E-12  0.0000000E+00 -0.7618344E-10
 -0.4690458E-02  0.0000000E+00 -0.5050505E-02 -0.5483560E-12  0.0000000E+00 -0.7656024E-10
 -0.4611543E-02  0.0000000E+00 -0.5050505E-02 -0.5238483E-12  0.0000000E+00 -0.7692069E-10
 -0.4503035E-02  0.0000000E+00 -0.5050505E-02 -0.4988553E-12  0.0000000E+00 -0.7726421E-10
 -0.4345206E-02  0.0000000E+00 -0.5050505E-02 -0.4740567E-12  0.0000000E+00 -0.7759057E-10
 -0.4187378E-02  0.0000000E+00 -0.5050505E-02 -0.4503864E-12  0.0000000E+00 -0.7789995E-10
 -0.3985156E-02  0.0000000E+00 -0.5050505E-02 -0.4294583E-12  0.0000000E+00 -0.7819328E-10
 -0.3669499E-02  0.0000000E+00 -0.5050505E-02 -0.4137980E-12  0.0000000E+00 -0.7847234E-10
 -0.3353842E-02  0.0000000E+00 -0.5050505E-02 -0.4079789E-12  0.0000000E+00 -0.7874035E-10
 -0.2978990E-02  0.0000000E+00 -0.5050505E-02 -0.4204313E-12  0.0000000E+00 -0.7900261E-10
 -0.2347676E-02  0.0000000E+00 -0.5050505E-02 -0.4682813E-12  0.0000000E+00 -0.7926668E-10
 -0.1716362E-02  0.0000000E+00 -0.5050505E-02 -0.5880579E-12  0.0000000E+00 -0.7953958E-10
 -0.1025842E-02  0.0000000E+00 -0.5050505E-02 -0.8639617E-12  0.0000000E+00 -0.7980898E-10
  0.2367855E-03  0.0000000E+00 -0.5050505E-02 -0.1502996E-11  0.0000000E+00 -0.7994925E-10
  0.1499413E-02  0.0000000E+00 -0.5050505E-02 -0.3044412E-11  0.0000000E+00 -0.7928229E-10
  0.5287294E-02  0.0000000E+00 -0.5050505E-02 -0.6957768E-11  0.0000000E+00 -0.7454783E-10
 -0.5050505E-02  0.0000000E+00 -0.5050505E-02  0.2426278E-14  0.0000000E+00 -0.7774573E-10
 -0.5050505E-02  0.0000000E+00 -0.5050505E-02  0.6547399E-13  0.0000000E+00 -0.7772666E-10
 -0.5050505E-02  0.0000000E+00 -0.5050505E-02  0.1517121E-12  0.0000000E+00 -0.7767948E-10
 -0.5050505E-02  0.0000000E+00 -0.5050505E-02  0.2267836E-12  0.0000000E+00 -0.7759954E-10
 -0.5050505E-02  0.0000000E+00 -0.5050505E-02  0.2982064E-12  0.0000000E+00 -0.7749028E-10
 -0.5050505E-02  0.0000000E+00 -0.5050505E-02  0.3669760E-12  0.0000000E+00 -0.7735270E-10
 -0.5050504E-02  0.0000000E+00 -0.5050505E-02  0.4334197E-12  0.0000000E+00 -0.7718755E-10
 -0.5050501E-02  0.0000000E+00 -0.5050505E-02  0.4978644E-12  0.0000000E+00 -0.7699560E-10
 -0.5050495E-02  0.0000000E+00 -0.5050505E-02  0.5601394E-12  0.0000000E+00 -0.7677764E-10
 -0.5050482E-02  0.0000000E+00 -0.5050505E-02  0.6201999E-12  0.0000000E+00 -0.7653452E-10
 -0.5050449E-02  0.0000000E+00 -0.5050505E-02  0.6778531E-12  0.0000000E+00 -0.7626718E-10
 -0.5050376E-02  0.0000000E+00 -0.5050505E-02  0.7328981E-12  0.0000000E+00 -0.7597666E-10
 -0.5050299E-02  0.0000000E+00 -0.5050505E-02  0.7851567E-12  0.0000000E+00 -0.7566402E-10
 -0.5050178E-02  0.0000000E+00 -0.5050505E-02  0.8344505E-12  0.0000000E+00 -0.7533046E-10
 -0.5050018E-02  0.0000000E+00 -0.5050505E-02  0.8805120E-12  0.0000000E+00 -0.7497725E-10
 -0.5049710E-02  0.0000000E+00 -0.5050505E-02  0.9232298E-12  0.0000000E+00 -0.7460575E-10
 -0.5049253E-02  0.0000000E+00 -0.5050505E-02  0.9623662E-12  0.0000000E+00 -0.7421737E-10
 -0.5048636E-02  0.0000000E+00 -0.5050505E-02  0.9977872E-12  0.0000000E+00 -0.7381362E-10
 -0.5047442E-02  0.0000000E+00 -0.5050505E-02  0.1029278E-11  0.0000000E+00 -0.7339605E-10
 -0.5045727E-02  0.0000000E+00 -0.5050505E-02  0.1056733E-11  0.0000000E+00 -0.7296631E-10
 -0.5043261E-02  0.0000000E+00 -0.5050505E-02  0.1079961E-11  0.0000000E+00 -0.7252610E-10
 -0.5038714E-02  0.0000000E+00 -0.5050505E-02  0.1098864E-11  0.0000000E+00 -0.7207719E-10
 -0.5032318E-02  0.0000000E+00 -0.5050505E-02  0.1113301E-11  0.0000000E+00 -0.7162137E-10
 -0.5022454E-02  0.0000000E+00 -0.5050505E-02  0.1123228E-11  0.0000000E+00 -0.7116050E-10
 -0.5012589E-02  0.0000000E+00 -0.5050505E-02  0.1128504E-11  0.0000000E+00 -0.7069646E-10
 -0.5002725E-02  0.0000000E+00 -0.5050505E-02  0.1129069E-11  0.0000000E+00 -0.7023121E-10
 -0.4992860E-02  0.0000000E+00 -0.5050505E-02  0.1124893E-11  0.0000000E+00 -0.6976666E-10
 -0.4976523E-02  0.0000000E+00 -0.5050505E-02  0.1115976E-11  0.0000000E+00 -0.6930474E-10
 -0.4956794E-02  0.0000000E+00 -0.5050505E-02  0.1102289E-11  0.0000000E+00 -0.6884745E-10
 -0.4937066E-02  0.0000000E+00 -0.5050505E-02  0.1083854E-11  0.0000000E+00 -0.6839677E-10
 -0.4906239E-02  0.0000000E+00 -0.5050505E-02  0.1060693E-11  0.0000000E+00 -0.6795463E-10
 -0.4866782E-02  0.0000000E+00 -0.5050505E-02  0.1032910E-11  0.0000000E+00 -0.6752295E-10
 -0.4827325E-02  0.0000000E+00 -0.5050505E-02  0.1000543E-11  0.0000000E+00 -0.6710364E-10
 -0.4769372E-02  0.0000000E+00 -0.5050505E-02  0.9637476E-12  0.0000000E+00 -0.6669857E-10
 -0.4690458E-02  0.0000000E+00 -0.5050505E-02  0.9225827E-12  0.0000000E+00 -0.6630955E-10
 -0.4611543E-02  0.0000000E+00 -0.5050505E-02  0.8772790E-12  0.0000000E+00 -0.6593832E-10
 -0.4503035E-02  0.0000000E+00 -0.5050505E-02  0.8279555E-12  0.0000000E+00 -0.6558657E-10
 -0.4345206E-02  0.0000000E+00 -0.5050505E-02  0.7748424E-12  0.0000000E+00 -0.6525591E-10
 -0.4187378E-02  0.0000000E+00 -0.5050505E-02  0.7181404E-12  0.0000000E+00 -0.6494787E-10
 -0.3985156E-02  0.0000000E+00 -0.5050505E-02  0.6580055E-12  0.0000000E+00 -0.6466391E-10
 -0.3669499E-02  0.0000000E+00 -0.5050505E-02  0.5946904E-12  0.0000000E+00 -0.6440537E-10
 -0.3353842E-02  0.0000000E+00 -0.5050505E-02  0.5284031E-12  0.0000000E+00 -0.6417351E-10
 -0.2978990E-02  0.0000000E+00 -0.5050505E-02  0.4592698E-12  0.0000000E+00 -0.6396954E-10
 -0.2347676E-02  0.0000000E+00 -0.5050505E-02  0.3873800E-12  0.0000000E+00 -0.6379464E-10
 -0.1716362E-02  0.0000000E+00 -0.5050505E-02  0.3128821E-12  0.0000000E+00 -0.6364995E-10
 -0.1025842E-02  0.0000000E+00 -0.5050505E-02  0.2360440E-12  0.0000000E+00 -0.6353663E-10
  0.2367855E-03  0.0000000E+00 -0.5050505E-02  0.1581207E-12  0.0000000E+00 -0.6345543E-10
  0.1499413E-02  0.0000000E+00 -0.5050505E-02  0.8239518E-13  0.0000000E+00 -0.6340541E-10
  0.2762042E-02  0.0000000E+00 -0.5050505E-02  0.1807039E-13  0.0000000E+00 -0.6338402E-10
 -0.5050505E-02  0.0000000E+00 -0.5050505E-02 -0.5306025E-13  0.0000000E+00 -0.6339132E-10
 -0.5050505E-02  0.0000000E+00 -0.5050505E-02 -0.1345065E-12  0.0000000E+00 -0.6343025E-10
 -0.5050505E-02  0.0000000E+00 -0.5050505E-02 -0.2151201E-12  0.0000000E+00 -0.6350217E-10
 -0.5050505E-02  0.0000000E+00 -0.5050505E-02 -0.2928875E-12  0.0000000E+00 -0.6360662E-10
 -0.5050505E-02  0.0000000E+00 -0.5050505E-02 -0.3680691E-12  0.0000000E+00 -0.6374257E-10
 -0.5050505E-02  0.0000000E+00 -0.5050505E-02 -0.4409174E-12  0.0000000E+00 -0.6390908E-10
 -0.5050505E-02  0.0000000E+00 -0.5050505E-02 -0.5115292E-12  0.0000000E+00 -0.6410522E-10
 -0.5050504E-02  0.0000000E+00 -0.5050505E-02 -0.5797261E-12  0.0000000E+00 -0.6433000E-10
 -0.5050501E-02  0.0000000E+00 -0.5050505E-02 -0.6453223E-12  0.0000000E+00 -0.6458238E-10
 -0.5050495E-02  0.0000000E+00 -0.5050505E-02 -0.7080876E-12  0.0000000E+00 -0.6486123E-10
 -0.5050482E-02  0.0000000E+00 -0.5050505E-02 -0.7677171E-12  0.0000000E+00 -0.6516529E-10
 -0.5050449E-02  0.0000000E+00 -0.5050505E-02 -0.8240327E-12  0.0000000E+00 -0.6549328E-10
 -0.5050376E-02  0.0000000E+00 -0.5050505E-02 -0.8767668E-12  0.0000000E+00 -0.6584374E-10
 -0.5050299E-02  0.0000000E+00 -0.5050505E-02 -0.9257337E-12  0.0000000E+00 -0.6621514E-10
 -0.5050178E-02  0.0000000E+00 -0.5050505E-02 -0.9707401E-12  0.0000000E+00 -0.6660589E-10
 -0.5050018E-02  0.0000000E+00 -0.5050505E-02 -0.1011615E-11  0.0000000E+00 -0.6701436E-10
 -0.5049710E-02  0.0000000E+00 -0.5050505E-02 -0.1048255E-11  0.0000000E+00 -0.6743880E-10
 -0.5049253E-02  0.0000000E+00 -0.5050505E-02 -0.1080496E-11  0.0000000E+00 -0.6787740E-10
 -0.5048636E-02  0.0000000E+00 -0.5050505E-02 -0.1108256E-11  0.0000000E+00 -0.6832835E-10
 -0.5047442E-02  0.0000000E+00 -0.5050505E-02 -0.1131491E-11  0.0000000E+00 -0.6878979E-10
 -0.5045727E-02  0.0000000E+00 -0.5050505E-02 -0.1150119E-11  0.0000000E+00 -0.6925981E-10
 -0.5043261E-02  0.0000000E+00 -0.5050505E-02 -0.1164133E-11  0.0000000E+00 -0.6973655E-10
 -0.5038714E-02  0.0000000E+00 -0.5050505E-02 -0.1173570E-11  0.0000000E+00 -0.7021810E-10
 -0.5032318E-02  0.0000000E+00 -0.5050505E-02 -0.1178385E-11  0.0000000E+00 -0.7070255E-10
 -0.5022454E-02  0.0000000E+00 -0.5050505E-02 -0.1178660E-11  0.0000000E+00 -0.7118802E-10
 -0.5012589E-02  0.0000000E+00 -0.5050505E-02 -0.1174462E-11  0.0000000E+00 -0.7167263E-10
 -0.5002725E-02  0.0000000E+00 -0.5050505E-02 -0.1165872E-11  0.0000000E+00 -0.7215452E-10
 -0.4992860E-02  0.0000000E+00 -0.5050505E-02 -0.1152995E-11  0.0000000E+00 -0.7263195E-10
 -0.4976523E-02  0.0000000E+00 -0.5050505E-02 -0.1136002E-11  0.0000000E+00 -0.7310320E-10
 -0.4956794E-02  0.0000000E+00 -0.5050505E-02 -0.1114989E-11  0.0000000E+00 -0.7356651E-10
 -0.4937066E-02  0.0000000E+00 -0.5050505E-02 -0.1090193E-11  0.0000000E+00 -0.7402030E-10
 -0.4906239E-02  0.0000000E+00 -0.5050505E-02 -0.1061779E-11  0.0000000E+00 -0.7446304E-10
 -0.4866782E-02  0.0000000E+00 -0.5050505E-02 -0.1030051E-11  0.0000000E+00 -0.7489324E-10
 -0.4827325E-02  0.0000000E+00 -0.5050505E-02 -0.9952325E-12  0.0000000E+00 -0.7530958E-10
 -0.4769372E-02  0.0000000E+00 -0.5050505E-02 -0.9577535E-12  0.0000000E+00 -0.7571079E-10
 -0.4690458E-02  0.0000000E+00 -0.5050505E-02 -0.9179713E-12  0.0000000E+00 -0.7609575E-10
 -0.4611543E-02  0.0000000E+00 -0.5050505E-02 -0.8764059E-12  0.0000000E+00 -0.7646349E-10
 -0.4503035E-02  0.0000000E+00 -0.5050505E-02 -0.8338081E-12  0.0000000E+00 -0.7681321E-10
 -0.4345206E-02  0.0000000E+00 -0.5050505E-02 -0.7911144E-12  0.0000000E+00 -0.7714433E-10
 -0.4187378E-02  0.0000000E+00 -0.5050505E-02 -0.7497219E-12  0.0000000E+00 -0.7745652E-10
 -0.3985156E-02  0.0000000E+00 -0.5050505E-02 -0.7116158E-12  0.0000000E+00 -0.7774963E-10
 -0.3669499E-02  0.0000000E+00 -0.5050505E-02 -0.6800446E-12  0.0000000E+00 -0.7802371E-10
 -0.3353842E-02  0.0000000E+00 -0.5050505E-02 -0.6601242E-12  0.0000000E+00 -0.7827869E-10
 -0.2978990E-02  0.0000000E+00 -0.5050505E-02 -0.6606078E-12  0.0000000E+00 -0.7851341E-10
 -0.2347676E-02  0.0000000E+00 -0.5050505E-02 -0.6964629E-12  0.0000000E+00 -0.7872268E-10
 -0.1716362E-02  0.0000000E+00 -0.5050505E-02 -0.7934540E-12  0.0000000E+00 -0.7888929E-10
 -0.1025842E-02  0.0000000E+00 -0.5050505E-02 -0.9933960E-12  0.0000000E+00 -0.7896287E-10
  0.2367855E-03  0.0000000E+00 -0.5050505E-02 -0.1348103E-11  0.0000000E+00 -0.7881042E-10
  0.1499413E-02  0.0000000E+00 -0.5050505E-02 -0.1837335E-11  0.0000000E+00 -0.7814095E-10
  0.5287294E-02  0.0000000E+00 -0.5050505E-02 -0.1898818E-11  0.0000000E+00 -0.7666555E-10
 -0.5050505E-02  0.0000000E+00 -0.5050505E-02  0.7981229E-14  0.0000000E+00 -0.7713419E-10
 -0.5050505E-02  0.0000000E+00 -0.5050505E-02  0.9770908E-13  0.0000000E+00 -0.7711509E-10
 -0.5050505E-02  0.0000000E+00 -0.5050505E-02  0.2177642E-12  0.0000000E+00 -0.7706277E-10
 -0.5050505E-02  0.0000000E+00 -0.5050505E-02  0.3226225E-12  0.0000000E+00 -0.7697870E-10
 -0.5050505E-02  0.0000000E+00 -0.5050505E-02  0.4227359E-12  0.0000000E+00 -0.7686464E-10
 -0.5050505E-02  0.0000000E+00 -0.5050505E-02  0.5194790E-12  0.0000000E+00 -0.7672147E-10
 -0.5050504E-02  0.0000000E+00 -0.5050505E-02  0.6132140E-12  0.0000000E+00 -0.7654984E-10
 -0.5050501E-02  0.0000000E+00 -0.5050505E-02  0.7041408E-12  0.0000000E+00 -0.7635050E-10
 -0.5050495E-02  0.0000000E+00 -0.5050505E-02  0.7921409E-12  0.0000000E+00 -0.7612426E-10
 -0.5050482E-02  0.0000000E+00 -0.5050505E-02  0.8770004E-12  0.0000000E+00 -0.7587197E-10
 -0.5050449E-02  0.0000000E+00 -0.5050505E-02  0.9584752E-12  0.0000000E+00 -0.7559461E-10
 -0.5050376E-02  0.0000000E+00 -0.5050505E-02  0.1036314E-11  0.0000000E+00 -0.7529319E-10
 -0.5050299E-02  0.0000000E+00 -0.5050505E-02  0.1110221E-11  0.0000000E+00 -0.7496884E-10
 -0.5050178E-02  0.0000000E+00 -0.5050505E-02  0.1179909E-11  0.0000000E+00 -0.7462281E-10
 -0.5050018E-02  0.0000000E+00 -0.5050505E-02  0.1245081E-11  0.0000000E+00 -0.7425638E-10
 -0.5049710E-02  0.0000000E+00 -0.5050505E-02  0.1305509E-11  0.0000000E+00 -0.7387093E-10
 -0.5049253E-02  0.0000000E+00 -0.5050505E-02  0.1360882E-11  0.0000000E+00 -0.7346795E-10
 -0.5048636E-02  0.0000000E+00 -0.5050505E-02  0.1411009E-11  0.0000000E+00 -0.7304898E-10
 -0.5047442E-02  0.0000000E+00 -0.5050505E-02  0.1455600E-11  0.0000000E+00 -0.7261565E-10
 -0.5045727E-02  0.0000000E+00 -0.5050505E-02  0.1494471E-11  0.0000000E+00 -0.7216965E-10
 -0.5043261E-02  0.0000000E+00 -0.5050505E-02  0.1527349E-11  0.0000000E+00 -0.7171276E-10
 -0.5038714E-02  0.0000000E+00 -0.5050505E-02  0.1554153E-11  0.0000000E+00 -0.7124679E-10
 -0.5032318E-02  0.0000000E+00 -0.5050505E-02  0.1574630E-11  0.0000000E+00 -0.7077359E-10
 -0.5022454E-02  0.0000000E+00 -0.5050505E-02  0.1588716E-11  0.0000000E+00 -0.7029512E-10
 -0.5012589E-02  0.0000000E+00 -0.5050505E-02  0.1596216E-11  0.0000000E+00 -0.6981335E-10
 -0.5002725E-02  0.0000000E+00 -0.5050505E-02  0.1597096E-11  0.0000000E+00 -0.6933021E-10
 -0.4992860E-02  0.0000000E+00 -0.5050505E-02  0.1591265E-11  0.0000000E+00 -0.6884774E-10
 -0.4976523E-02  0.0000000E+00 -0.5050505E-02  0.1578702E-11  0.0000000E+00 -0.6836800E-10
 -0.4956794E-02  0.0000000E+00 -0.5050505E-02  0.1559384E-11  0.0000000E+00 -0.6789304E-10
 -0.4937066E-02  0.0000000E+00 -0.5050505E-02  0.1533371E-11  0.0000000E+00 -0.6742487E-10