title = "dataset feddes"
variables = "x", "y", "z", "vx", "vy", "vz"
zone t = "velocities, solution time =  5.500E+01 days        " i =   99, j =   99, k =    1,  f=point
 -0.5050505E-02  0.0000000E+00 -0.5050505E-02  0.1006759E-08  0.0000000E+00  0.8817373E-05
 -0.5050505E-02  0.0000000E+00 -0.5050505E-02  0.3016675E-08  0.0000000E+00  0.8821420E-05
 -0.5050505E-02  0.0000000E+00 -0.5050505E-02  0.5014977E-08  0.0000000E+00  0.8829499E-05
 -0.5050505E-02  0.0000000E+00 -0.5050505E-02  0.6993886E-08  0.0000000E+00  0.8841580E-05
 -0.5050505E-02  0.0000000E+00 -0.5050505E-02  0.8945763E-08  0.0000000E+00  0.8857614E-05
 -0.5050505E-02  0.0000000E+00 -0.5050505E-02  0.1086302E-07  0.0000000E+00  0.8877541E-05
 -0.5050504E-02  0.0000000E+00 -0.5050505E-02  0.1273818E-07  0.0000000E+00  0.8901283E-05
 -0.5050501E-02  0.0000000E+00 -0.5050505E-02  0.1456385E-07  0.0000000E+00  0.8928747E-05
 -0.5050495E-02  0.0000000E+00 -0.5050505E-02  0.1633283E-07  0.0000000E+00  0.8959828E-05
 -0.5050482E-02  0.0000000E+00 -0.5050505E-02  0.1803805E-07  0.0000000E+00  0.8994404E-05
 -0.5050449E-02  0.0000000E+00 -0.5050505E-02  0.1967264E-07  0.0000000E+00  0.9032339E-05
 -0.5050376E-02  0.0000000E+00 -0.5050505E-02  0.2122994E-07  0.0000000E+00  0.9073486E-05
 -0.5050299E-02  0.0000000E+00 -0.5050505E-02  0.2270356E-07  0.0000000E+00  0.9117681E-05
 -0.5050178E-02  0.0000000E+00 -0.5050505E-02  0.2408732E-07  0.0000000E+00  0.9164751E-05
 -0.5050018E-02  0.0000000E+00 -0.5050505E-02  0.2537536E-07  0.0000000E+00  0.9214509E-05
 -0.5049710E-02  0.0000000E+00 -0.5050505E-02  0.2656213E-07  0.0000000E+00  0.9266756E-05
 -0.5049253E-02  0.0000000E+00 -0.5050505E-02  0.2764240E-07  0.0000000E+00  0.9321284E-05
 -0.5048636E-02  0.0000000E+00 -0.5050505E-02  0.2861132E-07  0.0000000E+00  0.9377873E-05
 -0.5047442E-02  0.0000000E+00 -0.5050505E-02  0.2946441E-07  0.0000000E+00  0.9436296E-05
 -0.5045727E-02  0.0000000E+00 -0.5050505E-02  0.3019759E-07  0.0000000E+00  0.9496314E-05
 -0.5043261E-02  0.0000000E+00 -0.5050505E-02  0.3080723E-07  0.0000000E+00  0.9557684E-05
 -0.5038714E-02  0.0000000E+00 -0.5050505E-02  0.3129014E-07  0.0000000E+00  0.9620152E-05
 -0.5032318E-02  0.0000000E+00 -0.5050505E-02  0.3164363E-07  0.0000000E+00  0.9683462E-05
 -0.5022454E-02  0.0000000E+00 -0.5050505E-02  0.3186547E-07  0.0000000E+00  0.9747351E-05
 -0.5012589E-02  0.0000000E+00 -0.5050505E-02  0.3195396E-07  0.0000000E+00  0.9811552E-05
 -0.5002725E-02  0.0000000E+00 -0.5050505E-02  0.3190795E-07  0.0000000E+00  0.9875797E-05
 -0.4992860E-02  0.0000000E+00 -0.5050505E-02  0.3172681E-07  0.0000000E+00  0.9939812E-05
 -0.4976523E-02  0.0000000E+00 -0.5050505E-02  0.3141050E-07  0.0000000E+00  0.1000333E-04
 -0.4956794E-02  0.0000000E+00 -0.5050505E-02  0.3095952E-07  0.0000000E+00  0.1006607E-04
 -0.4937066E-02  0.0000000E+00 -0.5050505E-02  0.3037498E-07  0.0000000E+00  0.1012777E-04
 -0.4906239E-02  0.0000000E+00 -0.5050505E-02  0.2965857E-07  0.0000000E+00  0.1018817E-04
 -0.4866782E-02  0.0000000E+00 -0.5050505E-02  0.2881257E-07  0.0000000E+00  0.1024699E-04
 -0.4827325E-02  0.0000000E+00 -0.5050505E-02  0.2783984E-07  0.0000000E+00  0.1030398E-04
 -0.4769372E-02  0.0000000E+00 -0.5050505E-02  0.2674385E-07  0.0000000E+00  0.1035889E-04
 -0.4690458E-02  0.0000000E+00 -0.5050505E-02  0.2552863E-07  0.0000000E+00  0.1041148E-04
 -0.4611543E-02  0.0000000E+00 -0.5050505E-02  0.2419878E-07  0.0000000E+00  0.1046151E-04
 -0.4503035E-02  0.0000000E+00 -0.5050505E-02  0.2275946E-07  0.0000000E+00  0.1050875E-04
 -0.4345206E-02  0.0000000E+00 -0.5050505E-02  0.2121638E-07  0.0000000E+00  0.1055299E-04
 -0.4187378E-02  0.0000000E+00 -0.5050505E-02  0.1957575E-07  0.0000000E+00  0.1059402E-04
 -0.3985156E-02  0.0000000E+00 -0.5050505E-02  0.1784427E-07  0.0000000E+00  0.1063167E-04
 -0.3669499E-02  0.0000000E+00 -0.5050505E-02  0.1602909E-07  0.0000000E+00  0.1066574E-04
 -0.3353842E-02  0.0000000E+00 -0.5050505E-02  0.1413782E-07  0.0000000E+00  0.1069609E-04
 -0.2978990E-02  0.0000000E+00 -0.5050505E-02  0.1217845E-07  0.0000000E+00  0.1072257E-04
 -0.2347676E-02  0.0000000E+00 -0.5050505E-02  0.1015930E-07  0.0000000E+00  0.1074504E-04
 -0.1716362E-02  0.0000000E+00 -0.5050505E-02  0.8089032E-08  0.0000000E+00  0.1076340E-04
 -0.1025842E-02  0.0000000E+00 -0.5050505E-02  0.5976570E-08  0.0000000E+00  0.1077755E-04
  0.2367855E-03  0.0000000E+00 -0.5050505E-02  0.3831059E-08  0.0000000E+00  0.1078741E-04
  0.1499413E-02  0.0000000E+00 -0.5050505E-02  0.1661819E-08  0.0000000E+00  0.1079294E-04
  0.2762042E-02  0.0000000E+00 -0.5050505E-02 -0.5217006E-09  0.0000000E+00  0.1079409E-04
 -0.5050505E-02  0.0000000E+00 -0.5050505E-02 -0.2709974E-08  0.0000000E+00  0.1079084E-04
 -0.5050505E-02  0.0000000E+00 -0.5050505E-02 -0.4893454E-08  0.0000000E+00  0.1078319E-04
 -0.5050505E-02  0.0000000E+00 -0.5050505E-02 -0.7062612E-08  0.0000000E+00  0.1077116E-04
 -0.5050505E-02  0.0000000E+00 -0.5050505E-02 -0.9207998E-08  0.0000000E+00  0.1075479E-04
 -0.5050505E-02  0.0000000E+00 -0.5050505E-02 -0.1132029E-07  0.0000000E+00  0.1073414E-04
 -0.5050505E-02  0.0000000E+00 -0.5050505E-02 -0.1339033E-07  0.0000000E+00  0.1070928E-04
 -0.5050505E-02  0.0000000E+00 -0.5050505E-02 -0.1540919E-07  0.0000000E+00  0.1068031E-04
 -0.5050504E-02  0.0000000E+00 -0.5050505E-02 -0.1736821E-07  0.0000000E+00  0.1064733E-04
 -0.5050501E-02  0.0000000E+00 -0.5050505E-02 -0.1925903E-07  0.0000000E+00  0.1061049E-04
 -0.5050495E-02  0.0000000E+00 -0.5050505E-02 -0.2107365E-07  0.0000000E+00  0.1056991E-04
 -0.5050482E-02  0.0000000E+00 -0.5050505E-02 -0.2280443E-07  0.0000000E+00  0.1052577E-04
 -0.5050449E-02  0.0000000E+00 -0.5050505E-02 -0.2444417E-07  0.0000000E+00  0.1047824E-04
 -0.5050376E-02  0.0000000E+00 -0.5050505E-02 -0.2598613E-07  0.0000000E+00  0.1042750E-04
 -0.5050299E-02  0.0000000E+00 -0.5050505E-02 -0.2742404E-07  0.0000000E+00  0.1037377E-04
 -0.5050178E-02  0.0000000E+00 -0.5050505E-02 -0.2875210E-07  0.0000000E+00  0.1031726E-04
 -0.5050018E-02  0.0000000E+00 -0.5050505E-02 -0.2996509E-07  0.0000000E+00  0.1025819E-04
 -0.5049710E-02  0.0000000E+00 -0.5050505E-02 -0.3105827E-07  0.0000000E+00  0.1019680E-04
 -0.5049253E-02  0.0000000E+00 -0.5050505E-02 -0.3202749E-07  0.0000000E+00  0.1013334E-04
 -0.5048636E-02  0.0000000E+00 -0.5050505E-02 -0.3286913E-07  0.0000000E+00  0.1006805E-04
 -0.5047442E-02  0.0000000E+00 -0.5050505E-02 -0.3358015E-07  0.0000000E+00  0.1000120E-04
 -0.5045727E-02  0.0000000E+00 -0.5050505E-02 -0.3415805E-07  0.0000000E+00  0.9933059E-05
 -0.5043261E-02  0.0000000E+00 -0.5050505E-02 -0.3460090E-07  0.0000000E+00  0.9863888E-05
 -0.5038714E-02  0.0000000E+00 -0.5050505E-02 -0.3490731E-07  0.0000000E+00  0.9793964E-05
 -0.5032318E-02  0.0000000E+00 -0.5050505E-02 -0.3507640E-07  0.0000000E+00  0.9723561E-05
 -0.5022454E-02  0.0000000E+00 -0.5050505E-02 -0.3510785E-07  0.0000000E+00  0.9652957E-05
 -0.5012589E-02  0.0000000E+00 -0.5050505E-02 -0.3500178E-07  0.0000000E+00  0.9582429E-05
 -0.5002725E-02  0.0000000E+00 -0.5050505E-02 -0.3475877E-07  0.0000000E+00  0.9512251E-05
 -0.4992860E-02  0.0000000E+00 -0.5050505E-02 -0.3437983E-07  0.0000000E+00  0.9442700E-05
 -0.4976523E-02  0.0000000E+00 -0.5050505E-02 -0.3386631E-07  0.0000000E+00  0.9374046E-05
 -0.4956794E-02  0.0000000E+00 -0.5050505E-02 -0.3321983E-07  0.0000000E+00  0.9306559E-05
 -0.4937066E-02  0.0000000E+00 -0.5050505E-02 -0.3244222E-07  0.0000000E+00  0.9240506E-05
 -0.4906239E-02  0.0000000E+00 -0.5050505E-02 -0.3153535E-07  0.0000000E+00  0.9176146E-05
 -0.4866782E-02  0.0000000E+00 -0.5050505E-02 -0.3050094E-07  0.0000000E+00  0.9113740E-05
 -0.4827325E-02  0.0000000E+00 -0.5050505E-02 -0.2934033E-07  0.0000000E+00  0.9053542E-05
 -0.4769372E-02  0.0000000E+00 -0.5050505E-02 -0.2805402E-07  0.0000000E+00  0.8995806E-05
 -0.4690458E-02  0.0000000E+00 -0.5050505E-02 -0.2664108E-07  0.0000000E+00  0.8940785E-05
 -0.4611543E-02  0.0000000E+00 -0.5050505E-02 -0.2509806E-07  0.0000000E+00  0.8888738E-05
 -0.4503035E-02  0.0000000E+00 -0.5050505E-02 -0.2341735E-07  0.0000000E+00  0.8839933E-05
 -0.4345206E-02  0.0000000E+00 -0.5050505E-02 -0.2158413E-07  0.0000000E+00  0.8794664E-05
 -0.4187378E-02  0.0000000E+00 -0.5050505E-02 -0.1957099E-07  0.0000000E+00  0.8753264E-05
 -0.3985156E-02  0.0000000E+00 -0.5050505E-02 -0.1732759E-07  0.0000000E+00  0.8716146E-05
 -0.3669499E-02  0.0000000E+00 -0.5050505E-02 -0.1475974E-07  0.0000000E+00  0.8683868E-05
 -0.3353842E-02  0.0000000E+00 -0.5050505E-02 -0.1168439E-07  0.0000000E+00  0.8657266E-05
 -0.2978990E-02  0.0000000E+00 -0.5050505E-02 -0.7725026E-08  0.0000000E+00  0.8637742E-05
 -0.2347676E-02  0.0000000E+00 -0.5050505E-02 -0.2047608E-08  0.0000000E+00  0.8627911E-05
 -0.1716362E-02  0.0000000E+00 -0.5050505E-02  0.7368865E-08  0.0000000E+00  0.8633264E-05
 -0.1025842E-02  0.0000000E+00 -0.5050505E-02  0.2594434E-07  0.0000000E+00  0.8666775E-05
  0.2367855E-03  0.0000000E+00 -0.5050505E-02  0.6984230E-07  0.0000000E+00  0.8763131E-05
  0.1499413E-02  0.0000000E+00 -0.5050505E-02  0.1924745E-06  0.0000000E+00  0.9027010E-05
  0.5287294E-02  0.0000000E+00 -0.5050505E-02  0.3186487E-05  0.0000000E+00  0.7211907E-05
 -0.5050505E-02  0.0000000E+00 -0.5050505E-02  0.3020243E-08  0.0000000E+00  0.8830007E-05
 -0.5050505E-02  0.0000000E+00 -0.5050505E-02  0.9049751E-08  0.0000000E+00  0.8834077E-05
 -0.5050505E-02  0.0000000E+00 -0.5050505E-02  0.1504445E-07  0.0000000E+00  0.8842201E-05
 -0.5050505E-02  0.0000000E+00 -0.5050505E-02  0.2098101E-07  0.0000000E+00  0.8854348E-05
 -0.5050505E-02  0.0000000E+00 -0.5050505E-02  0.2683650E-07  0.0000000E+00  0.8870471E-05
 -0.5050505E-02  0.0000000E+00 -0.5050505E-02  0.3258818E-07  0.0000000E+00  0.8890507E-05
 -0.5050504E-02  0.0000000E+00 -0.5050505E-02  0.3821358E-07  0.0000000E+00  0.8914380E-05
 -0.5050501E-02  0.0000000E+00 -0.5050505E-02  0.4369061E-07  0.0000000E+00  0.8941997E-05
 -0.5050495E-02  0.0000000E+00 -0.5050505E-02  0.4899760E-07  0.0000000E+00  0.8973250E-05
 -0.5050482E-02  0.0000000E+00 -0.5050505E-02  0.5411337E-07  0.0000000E+00  0.9008018E-05
 -0.5050449E-02  0.0000000E+00 -0.5050505E-02  0.5901732E-07  0.0000000E+00  0.9046165E-05
 -0.5050376E-02  0.0000000E+00 -0.5050505E-02  0.6368949E-07  0.0000000E+00  0.9087541E-05
 -0.5050299E-02  0.0000000E+00 -0.5050505E-02  0.6811065E-07  0.0000000E+00  0.9131984E-05
 -0.5050178E-02  0.0000000E+00 -0.5050505E-02  0.7226231E-07  0.0000000E+00  0.9179318E-05
 -0.5050018E-02  0.0000000E+00 -0.5050505E-02  0.7612690E-07  0.0000000E+00  0.9229356E-05
 -0.5049710E-02  0.0000000E+00 -0.5050505E-02  0.7968772E-07  0.0000000E+00  0.9281898E-05
 -0.5049253E-02  0.0000000E+00 -0.5050505E-02  0.8292911E-07  0.0000000E+00  0.9336735E-05
 -0.5048636E-02  0.0000000E+00 -0.5050505E-02  0.8583650E-07  0.0000000E+00  0.9393646E-05
 -0.5047442E-02  0.0000000E+00 -0.5050505E-02  0.8839643E-07  0.0000000E+00  0.9452402E-05
 -0.5045727E-02  0.0000000E+00 -0.5050505E-02  0.9059670E-07  0.0000000E+00  0.9512764E-05
 -0.5043261E-02  0.0000000E+00 -0.5050505E-02  0.9242637E-07  0.0000000E+00  0.9574486E-05
 -0.5038714E-02  0.0000000E+00 -0.5050505E-02  0.9387591E-07  0.0000000E+00  0.9637315E-05
 -0.5032318E-02  0.0000000E+00 -0.5050505E-02  0.9493715E-07  0.0000000E+00  0.9700992E-05
 -0.5022454E-02  0.0000000E+00 -0.5050505E-02  0.9560347E-07  0.0000000E+00  0.9765252E-05
 -0.5012589E-02  0.0000000E+00 -0.5050505E-02  0.9586975E-07  0.0000000E+00  0.9829829E-05
 -0.5002725E-02  0.0000000E+00 -0.5050505E-02  0.9573249E-07  0.0000000E+00  0.9894450E-05
 -0.4992860E-02  0.0000000E+00 -0.5050505E-02  0.9518982E-07  0.0000000E+00  0.9958842E-05
 -0.4976523E-02  0.0000000E+00 -0.5050505E-02  0.9424158E-07  0.0000000E+00  0.1002273E-04
 -0.4956794E-02  0.0000000E+00 -0.5050505E-02  0.9288931E-07  0.0000000E+00  0.1008585E-04
 -0.4937066E-02  0.0000000E+00 -0.5050505E-02  0.9113630E-07  0.0000000E+00  0.1014792E-04
 -0.4906239E-02  0.0000000E+00 -0.5050505E-02  0.8898760E-07  0.0000000E+00  0.1020868E-04
 -0.4866782E-02  0.0000000E+00 -0.5050505E-02  0.8645004E-07  0.0000000E+00  0.1026785E-04
 -0.4827325E-02  0.0000000E+00 -0.5050505E-02  0.8353222E-07  0.0000000E+00  0.1032519E-04
 -0.4769372E-02  0.0000000E+00 -0.5050505E-02  0.8024451E-07  0.0000000E+00  0.1038043E-04
 -0.4690458E-02  0.0000000E+00 -0.5050505E-02  0.7659902E-07  0.0000000E+00  0.1043334E-04
 -0.4611543E-02  0.0000000E+00 -0.5050505E-02  0.7260954E-07  0.0000000E+00  0.1048367E-04
 -0.4503035E-02  0.0000000E+00 -0.5050505E-02  0.6829157E-07  0.0000000E+00  0.1053121E-04
 -0.4345206E-02  0.0000000E+00 -0.5050505E-02  0.6366220E-07  0.0000000E+00  0.1057572E-04
 -0.4187378E-02  0.0000000E+00 -0.5050505E-02  0.5874006E-07  0.0000000E+00  0.1061701E-04
 -0.3985156E-02  0.0000000E+00 -0.5050505E-02  0.5354527E-07  0.0000000E+00  0.1065490E-04
 -0.3669499E-02  0.0000000E+00 -0.5050505E-02  0.4809932E-07  0.0000000E+00  0.1068919E-04
 -0.3353842E-02  0.0000000E+00 -0.5050505E-02  0.4242499E-07  0.0000000E+00  0.1071973E-04
 -0.2978990E-02  0.0000000E+00 -0.5050505E-02  0.3654625E-07  0.0000000E+00  0.1074638E-04
 -0.2347676E-02  0.0000000E+00 -0.5050505E-02  0.3048812E-07  0.0000000E+00  0.1076900E-04
 -0.1716362E-02  0.0000000E+00 -0.5050505E-02  0.2427657E-07  0.0000000E+00  0.1078748E-04
 -0.1025842E-02  0.0000000E+00 -0.5050505E-02  0.1793838E-07  0.0000000E+00  0.1080172E-04
  0.2367855E-03  0.0000000E+00 -0.5050505E-02  0.1150099E-07  0.0000000E+00  0.1081166E-04
  0.1499413E-02  0.0000000E+00 -0.5050505E-02  0.4992396E-08  0.0000000E+00  0.1081723E-04
  0.2762042E-02  0.0000000E+00 -0.5050505E-02 -0.1559063E-08  0.0000000E+00  0.1081840E-04
 -0.5050505E-02  0.0000000E+00 -0.5050505E-02 -0.8124790E-08  0.0000000E+00  0.1081514E-04
 -0.5050505E-02  0.0000000E+00 -0.5050505E-02 -0.1467613E-07  0.0000000E+00  0.1080746E-04
 -0.5050505E-02  0.0000000E+00 -0.5050505E-02 -0.2118448E-07  0.0000000E+00  0.1079537E-04
 -0.5050505E-02  0.0000000E+00 -0.5050505E-02 -0.2762149E-07  0.0000000E+00  0.1077892E-04
 -0.5050505E-02  0.0000000E+00 -0.5050505E-02 -0.3395916E-07  0.0000000E+00  0.1075815E-04
 -0.5050505E-02  0.0000000E+00 -0.5050505E-02 -0.4017004E-07  0.0000000E+00  0.1073316E-04
 -0.5050505E-02  0.0000000E+00 -0.5050505E-02 -0.4622732E-07  0.0000000E+00  0.1070402E-04
 -0.5050504E-02  0.0000000E+00 -0.5050505E-02 -0.5210499E-07  0.0000000E+00  0.1067086E-04
 -0.5050501E-02  0.0000000E+00 -0.5050505E-02 -0.5777799E-07  0.0000000E+00  0.1063381E-04
 -0.5050495E-02  0.0000000E+00 -0.5050505E-02 -0.6322228E-07  0.0000000E+00  0.1059300E-04
 -0.5050482E-02  0.0000000E+00 -0.5050505E-02 -0.6841498E-07  0.0000000E+00  0.1054861E-04
 -0.5050449E-02  0.0000000E+00 -0.5050505E-02 -0.7333450E-07  0.0000000E+00  0.1050081E-04
 -0.5050376E-02  0.0000000E+00 -0.5050505E-02 -0.7796056E-07  0.0000000E+00  0.1044979E-04
 -0.5050299E-02  0.0000000E+00 -0.5050505E-02 -0.8227435E-07  0.0000000E+00  0.1039575E-04
 -0.5050178E-02  0.0000000E+00 -0.5050505E-02 -0.8625856E-07  0.0000000E+00  0.1033892E-04
 -0.5050018E-02  0.0000000E+00 -0.5050505E-02 -0.8989743E-07  0.0000000E+00  0.1027951E-04
 -0.5049710E-02  0.0000000E+00 -0.5050505E-02 -0.9317682E-07  0.0000000E+00  0.1021777E-04
 -0.5049253E-02  0.0000000E+00 -0.5050505E-02 -0.9608426E-07  0.0000000E+00  0.1015395E-04
 -0.5048636E-02  0.0000000E+00 -0.5050505E-02 -0.9860890E-07  0.0000000E+00  0.1008830E-04
 -0.5047442E-02  0.0000000E+00 -0.5050505E-02 -0.1007416E-06  0.0000000E+00  0.1002107E-04
 -0.5045727E-02  0.0000000E+00 -0.5050505E-02 -0.1024750E-06  0.0000000E+00  0.9952542E-05
 -0.5043261E-02  0.0000000E+00 -0.5050505E-02 -0.1038032E-06  0.0000000E+00  0.9882983E-05
 -0.5038714E-02  0.0000000E+00 -0.5050505E-02 -0.1047220E-06  0.0000000E+00  0.9812666E-05
 -0.5032318E-02  0.0000000E+00 -0.5050505E-02 -0.1052290E-06  0.0000000E+00  0.9741869E-05
 -0.5022454E-02  0.0000000E+00 -0.5050505E-02 -0.1053230E-06  0.0000000E+00  0.9670870E-05
 -0.5012589E-02  0.0000000E+00 -0.5050505E-02 -0.1050046E-06  0.0000000E+00  0.9599947E-05
 -0.5002725E-02  0.0000000E+00 -0.5050505E-02 -0.1042756E-06  0.0000000E+00  0.9529378E-05
 -0.4992860E-02  0.0000000E+00 -0.5050505E-02 -0.1031389E-06  0.0000000E+00  0.9459438E-05
 -0.4976523E-02  0.0000000E+00 -0.5050505E-02 -0.1015987E-06  0.0000000E+00  0.9390400E-05
 -0.4956794E-02  0.0000000E+00 -0.5050505E-02 -0.9965994E-07  0.0000000E+00  0.9322535E-05
 -0.4937066E-02  0.0000000E+00 -0.5050505E-02 -0.9732827E-07  0.0000000E+00  0.9256109E-05
 -0.4906239E-02  0.0000000E+00 -0.5050505E-02 -0.9460944E-07  0.0000000E+00  0.9191384E-05
 -0.4866782E-02  0.0000000E+00 -0.5050505E-02 -0.9150893E-07  0.0000000E+00  0.9128618E-05
 -0.4827325E-02  0.0000000E+00 -0.5050505E-02 -0.8803111E-07  0.0000000E+00  0.9068067E-05
 -0.4769372E-02  0.0000000E+00 -0.5050505E-02 -0.8417814E-07  0.0000000E+00  0.9009980E-05
 -0.4690458E-02  0.0000000E+00 -0.5050505E-02 -0.7994822E-07  0.0000000E+00  0.8954610E-05
 -0.4611543E-02  0.0000000E+00 -0.5050505E-02 -0.7533277E-07  0.0000000E+00  0.8902207E-05
 -0.4503035E-02  0.0000000E+00 -0.5050505E-02 -0.7031189E-07  0.0000000E+00  0.8853030E-05
 -0.4345206E-02  0.0000000E+00 -0.5050505E-02 -0.6484659E-07  0.0000000E+00  0.8807352E-05
 -0.4187378E-02  0.0000000E+00 -0.5050505E-02 -0.5886504E-07  0.0000000E+00  0.8765472E-05
 -0.3985156E-02  0.0000000E+00 -0.5050505E-02 -0.5223712E-07  0.0000000E+00  0.8727737E-05
 -0.3669499E-02  0.0000000E+00 -0.5050505E-02 -0.4472544E-07  0.0000000E+00  0.8694573E-05
 -0.3353842E-02  0.0000000E+00 -0.5050505E-02 -0.3588550E-07  0.0000000E+00  0.8666536E-05
 -0.2978990E-02  0.0000000E+00 -0.5050505E-02 -0.2485162E-07  0.0000000E+00  0.8644378E-05
 -0.2347676E-02  0.0000000E+00 -0.5050505E-02 -0.9849952E-08  0.0000000E+00  0.8629076E-05
 -0.1716362E-02  0.0000000E+00 -0.5050505E-02  0.1297607E-07  0.0000000E+00  0.8621546E-05
 -0.1025842E-02  0.0000000E+00 -0.5050505E-02  0.5256493E-07  0.0000000E+00  0.8620642E-05
  0.2367855E-03  0.0000000E+00 -0.5050505E-02  0.1309986E-06  0.0000000E+00  0.8613126E-05
  0.1499413E-02  0.0000000E+00 -0.5050505E-02  0.3060691E-06  0.0000000E+00  0.8526524E-05
  0.5287294E-02  0.0000000E+00 -0.5050505E-02  0.7359453E-06  0.0000000E+00  0.8010239E-05
 -0.5050505E-02  0.0000000E+00 -0.5050505E-02  0.5039190E-08  0.0000000E+00  0.8855312E-05
 -0.5050505E-02  0.0000000E+00 -0.5050505E-02  0.1509897E-07  0.0000000E+00  0.8859426E-05
 -0.5050505E-02  0.0000000E+00 -0.5050505E-02  0.2510074E-07  0.0000000E+00  0.8867639E-05
 -0.5050505E-02  0.0000000E+00 -0.5050505E-02  0.3500558E-07  0.0000000E+00  0.8879919E-05
 -0.5050505E-02  0.0000000E+00 -0.5050505E-02  0.4477528E-07  0.0000000E+00  0.8896219E-05
 -0.5050505E-02  0.0000000E+00 -0.5050505E-02  0.5437189E-07  0.0000000E+00  0.8916476E-05
 -0.5050504E-02  0.0000000E+00 -0.5050505E-02  0.6375796E-07  0.0000000E+00  0.8940612E-05
 -0.5050501E-02  0.0000000E+00 -0.5050505E-02  0.7289663E-07  0.0000000E+00  0.8968533E-05
 -0.5050495E-02  0.0000000E+00 -0.5050505E-02  0.8175176E-07  0.0000000E+00  0.9000131E-05
 -0.5050482E-02  0.0000000E+00 -0.5050505E-02  0.9028804E-07  0.0000000E+00  0.9035284E-05
 -0.5050449E-02  0.0000000E+00 -0.5050505E-02  0.9847111E-07  0.0000000E+00  0.9073854E-05
 -0.5050376E-02  0.0000000E+00 -0.5050505E-02  0.1062677E-06  0.0000000E+00  0.9115689E-05
 -0.5050299E-02  0.0000000E+00 -0.5050505E-02  0.1136456E-06  0.0000000E+00  0.9160627E-05
 -0.5050178E-02  0.0000000E+00 -0.5050505E-02  0.1205742E-06  0.0000000E+00  0.9208490E-05
 -0.5050018E-02  0.0000000E+00 -0.5050505E-02  0.1270239E-06  0.0000000E+00  0.9259089E-05
 -0.5049710E-02  0.0000000E+00 -0.5050505E-02  0.1329670E-06  0.0000000E+00  0.9312222E-05
 -0.5049253E-02  0.0000000E+00 -0.5050505E-02  0.1383773E-06  0.0000000E+00  0.9367677E-05
 -0.5048636E-02  0.0000000E+00 -0.5050505E-02  0.1432306E-06  0.0000000E+00  0.9425233E-05
 -0.5047442E-02  0.0000000E+00 -0.5050505E-02  0.1475042E-06  0.0000000E+00  0.9484656E-05
 -0.5045727E-02  0.0000000E+00 -0.5050505E-02  0.1511778E-06  0.0000000E+00  0.9545705E-05
 -0.5043261E-02  0.0000000E+00 -0.5050505E-02  0.1542333E-06  0.0000000E+00  0.9608134E-05
 -0.5038714E-02  0.0000000E+00 -0.5050505E-02  0.1566545E-06  0.0000000E+00  0.9671684E-05
 -0.5032318E-02  0.0000000E+00 -0.5050505E-02  0.1584279E-06  0.0000000E+00  0.9736095E-05
 -0.5022454E-02  0.0000000E+00 -0.5050505E-02  0.1595423E-06  0.0000000E+00  0.9801099E-05
 -0.5012589E-02  0.0000000E+00 -0.5050505E-02  0.1599893E-06  0.0000000E+00  0.9866426E-05
 -0.5002725E-02  0.0000000E+00 -0.5050505E-02  0.1597628E-06  0.0000000E+00  0.9931801E-05
 -0.4992860E-02  0.0000000E+00 -0.5050505E-02  0.1588599E-06  0.0000000E+00  0.9996949E-05
 -0.4976523E-02  0.0000000E+00 -0.5050505E-02  0.1572801E-06  0.0000000E+00  0.1006159E-04
 -0.4956794E-02  0.0000000E+00 -0.5050505E-02  0.1550259E-06  0.0000000E+00  0.1012546E-04
 -0.4937066E-02  0.0000000E+00 -0.5050505E-02  0.1521030E-06  0.0000000E+00  0.1018826E-04
 -0.4906239E-02  0.0000000E+00 -0.5050505E-02  0.1485195E-06  0.0000000E+00  0.1024974E-04
 -0.4866782E-02  0.0000000E+00 -0.5050505E-02  0.1442870E-06  0.0000000E+00  0.1030963E-04
 -0.4827325E-02  0.0000000E+00 -0.5050505E-02  0.1394197E-06  0.0000000E+00  0.1036766E-04
 -0.4769372E-02  0.0000000E+00 -0.5050505E-02  0.1339349E-06  0.0000000E+00  0.1042357E-04
 -0.4690458E-02  0.0000000E+00 -0.5050505E-02  0.1278528E-06  0.0000000E+00  0.1047712E-04
 -0.4611543E-02  0.0000000E+00 -0.5050505E-02  0.1211965E-06  0.0000000E+00  0.1052807E-04
 -0.4503035E-02  0.0000000E+00 -0.5050505E-02  0.1139916E-06  0.0000000E+00  0.1057618E-04
 -0.4345206E-02  0.0000000E+00 -0.5050505E-02  0.1062669E-06  0.0000000E+00  0.1062125E-04
 -0.4187378E-02  0.0000000E+00 -0.5050505E-02  0.9805326E-07  0.0000000E+00  0.1066305E-04
 -0.3985156E-02  0.0000000E+00 -0.5050505E-02  0.8938438E-07  0.0000000E+00  0.1070141E-04
 -0.3669499E-02  0.0000000E+00 -0.5050505E-02  0.8029611E-07  0.0000000E+00  0.1073613E-04
 -0.3353842E-02  0.0000000E+00 -0.5050505E-02  0.7082647E-07  0.0000000E+00  0.1076706E-04
 -0.2978990E-02  0.0000000E+00 -0.5050505E-02  0.6101548E-07  0.0000000E+00  0.1079405E-04
 -0.2347676E-02  0.0000000E+00 -0.5050505E-02  0.5090492E-07  0.0000000E+00  0.1081697E-04
 -0.1716362E-02  0.0000000E+00 -0.5050505E-02  0.4053816E-07  0.0000000E+00  0.1083569E-04
 -0.1025842E-02  0.0000000E+00 -0.5050505E-02  0.2995990E-07  0.0000000E+00  0.1085014E-04
  0.2367855E-03  0.0000000E+00 -0.5050505E-02  0.1921599E-07  0.0000000E+00  0.1086022E-04
  0.1499413E-02  0.0000000E+00 -0.5050505E-02  0.8353150E-08  0.0000000E+00  0.1086588E-04
  0.2762042E-02  0.0000000E+00 -0.5050505E-02 -0.2581272E-08  0.0000000E+00  0.1086709E-04
 -0.5050505E-02  0.0000000E+00 -0.5050505E-02 -0.1353952E-07  0.0000000E+00  0.1086381E-04
 -0.5050505E-02  0.0000000E+00 -0.5050505E-02 -0.2447374E-07  0.0000000E+00  0.1085606E-04
 -0.5050505E-02  0.0000000E+00 -0.5050505E-02 -0.3533617E-07  0.0000000E+00  0.1084386E-04
 -0.5050505E-02  0.0000000E+00 -0.5050505E-02 -0.4607945E-07  0.0000000E+00  0.1082723E-04
 -0.5050505E-02  0.0000000E+00 -0.5050505E-02 -0.5665684E-07  0.0000000E+00  0.1080624E-04
 -0.5050505E-02  0.0000000E+00 -0.5050505E-02 -0.6702249E-07  0.0000000E+00  0.1078097E-04
 -0.5050505E-02  0.0000000E+00 -0.5050505E-02 -0.7713164E-07  0.0000000E+00  0.1075152E-04
 -0.5050504E-02  0.0000000E+00 -0.5050505E-02 -0.8694087E-07  0.0000000E+00  0.1071799E-04
 -0.5050501E-02  0.0000000E+00 -0.5050505E-02 -0.9640832E-07  0.0000000E+00  0.1068052E-04
 -0.5050495E-02  0.0000000E+00 -0.5050505E-02 -0.1054939E-06  0.0000000E+00  0.1063925E-04
 -0.5050482E-02  0.0000000E+00 -0.5050505E-02 -0.1141594E-06  0.0000000E+00  0.1059436E-04
 -0.5050449E-02  0.0000000E+00 -0.5050505E-02 -0.1223687E-06  0.0000000E+00  0.1054601E-04
 -0.5050376E-02  0.0000000E+00 -0.5050505E-02 -0.1300881E-06  0.0000000E+00  0.1049441E-04
 -0.5050299E-02  0.0000000E+00 -0.5050505E-02 -0.1372861E-06  0.0000000E+00  0.1043976E-04
 -0.5050178E-02  0.0000000E+00 -0.5050505E-02 -0.1439340E-06  0.0000000E+00  0.1038229E-04
 -0.5050018E-02  0.0000000E+00 -0.5050505E-02 -0.1500053E-06  0.0000000E+00  0.1032221E-04
 -0.5049710E-02  0.0000000E+00 -0.5050505E-02 -0.1554766E-06  0.0000000E+00  0.1025977E-04
 -0.5049253E-02  0.0000000E+00 -0.5050505E-02 -0.1603270E-06  0.0000000E+00  0.1019523E-04
 -0.5048636E-02  0.0000000E+00 -0.5050505E-02 -0.1645386E-06  0.0000000E+00  0.1012884E-04
 -0.5047442E-02  0.0000000E+00 -0.5050505E-02 -0.1680960E-06  0.0000000E+00  0.1006086E-04
 -0.5045727E-02  0.0000000E+00 -0.5050505E-02 -0.1709870E-06  0.0000000E+00  0.9991558E-05
 -0.5043261E-02  0.0000000E+00 -0.5050505E-02 -0.1732019E-06  0.0000000E+00  0.9921220E-05
 -0.5038714E-02  0.0000000E+00 -0.5050505E-02 -0.1747338E-06  0.0000000E+00  0.9850117E-05
 -0.5032318E-02  0.0000000E+00 -0.5050505E-02 -0.1755785E-06  0.0000000E+00  0.9778531E-05
 -0.5022454E-02  0.0000000E+00 -0.5050505E-02 -0.1757345E-06  0.0000000E+00  0.9706741E-05
 -0.5012589E-02  0.0000000E+00 -0.5050505E-02 -0.1752026E-06  0.0000000E+00  0.9635029E-05
 -0.5002725E-02  0.0000000E+00 -0.5050505E-02 -0.1739859E-06  0.0000000E+00  0.9563675E-05
 -0.4992860E-02  0.0000000E+00 -0.5050505E-02 -0.1720896E-06  0.0000000E+00  0.9492958E-05
 -0.4976523E-02  0.0000000E+00 -0.5050505E-02 -0.1695208E-06  0.0000000E+00  0.9423152E-05
 -0.4956794E-02  0.0000000E+00 -0.5050505E-02 -0.1662882E-06  0.0000000E+00  0.9354530E-05
 -0.4937066E-02  0.0000000E+00 -0.5050505E-02 -0.1624014E-06  0.0000000E+00  0.9287360E-05
 -0.4906239E-02  0.0000000E+00 -0.5050505E-02 -0.1578707E-06  0.0000000E+00  0.9221904E-05
 -0.4866782E-02  0.0000000E+00 -0.5050505E-02 -0.1527059E-06  0.0000000E+00  0.9158421E-05
 -0.4827325E-02  0.0000000E+00 -0.5050505E-02 -0.1469158E-06  0.0000000E+00  0.9097164E-05
 -0.4769372E-02  0.0000000E+00 -0.5050505E-02 -0.1405057E-06  0.0000000E+00  0.9038382E-05
 -0.4690458E-02  0.0000000E+00 -0.5050505E-02 -0.1334758E-06  0.0000000E+00  0.8982319E-05
 -0.4611543E-02  0.0000000E+00 -0.5050505E-02 -0.1258170E-06  0.0000000E+00  0.8929216E-05
 -0.4503035E-02  0.0000000E+00 -0.5050505E-02 -0.1175047E-06  0.0000000E+00  0.8879314E-05
 -0.4345206E-02  0.0000000E+00 -0.5050505E-02 -0.1084897E-06  0.0000000E+00  0.8832854E-05
 -0.4187378E-02  0.0000000E+00 -0.5050505E-02 -0.9868089E-07  0.0000000E+00  0.8790082E-05
 -0.3985156E-02  0.0000000E+00 -0.5050505E-02 -0.8791748E-07  0.0000000E+00  0.8751245E-05
 -0.3669499E-02  0.0000000E+00 -0.5050505E-02 -0.7591834E-07  0.0000000E+00  0.8716592E-05
 -0.3353842E-02  0.0000000E+00 -0.5050505E-02 -0.6219102E-07  0.0000000E+00  0.8686335E-05
 -0.2978990E-02  0.0000000E+00 -0.5050505E-02 -0.4586588E-07  0.0000000E+00  0.8660549E-05
 -0.2347676E-02  0.0000000E+00 -0.5050505E-02 -0.2539873E-07  0.0000000E+00  0.8638875E-05
 -0.1716362E-02  0.0000000E+00 -0.5050505E-02  0.1918024E-08  0.0000000E+00  0.8619659E-05
 -0.1025842E-02  0.0000000E+00 -0.5050505E-02  0.4052455E-07  0.0000000E+00  0.8597698E-05
  0.2367855E-03  0.0000000E+00 -0.5050505E-02  0.9599657E-07  0.0000000E+00  0.8558929E-05
  0.1499413E-02  0.0000000E+00 -0.5050505E-02  0.1663068E-06  0.0000000E+00  0.8472200E-05
  0.5287294E-02  0.0000000E+00 -0.5050505E-02  0.1914153E-06  0.0000000E+00  0.8306041E-05
 -0.5050505E-02  0.0000000E+00 -0.5050505E-02  0.7074683E-08  0.0000000E+00  0.8893322E-05
 -0.5050505E-02  0.0000000E+00 -0.5050505E-02  0.2119773E-07  0.0000000E+00  0.8897503E-05
 -0.5050505E-02  0.0000000E+00 -0.5050505E-02  0.3523939E-07  0.0000000E+00  0.8905850E-05
 -0.5050505E-02  0.0000000E+00 -0.5050505E-02  0.4914516E-07  0.0000000E+00  0.8918331E-05
 -0.5050505E-02  0.0000000E+00 -0.5050505E-02  0.6286139E-07  0.0000000E+00  0.8934897E-05
 -0.5050505E-02  0.0000000E+00 -0.5050505E-02  0.7633486E-07  0.0000000E+00  0.8955485E-05
 -0.5050504E-02  0.0000000E+00 -0.5050505E-02  0.8951304E-07  0.0000000E+00  0.8980016E-05
 -0.5050501E-02  0.0000000E+00 -0.5050505E-02  0.1023442E-06  0.0000000E+00  0.9008394E-05
 -0.5050495E-02  0.0000000E+00 -0.5050505E-02  0.1147777E-06  0.0000000E+00  0.9040511E-05
 -0.5050482E-02  0.0000000E+00 -0.5050505E-02  0.1267639E-06  0.0000000E+00  0.9076242E-05
 -0.5050449E-02  0.0000000E+00 -0.5050505E-02  0.1382547E-06  0.0000000E+00  0.9115448E-05
 -0.5050376E-02  0.0000000E+00 -0.5050505E-02  0.1492032E-06  0.0000000E+00  0.9157975E-05
 -0.5050299E-02  0.0000000E+00 -0.5050505E-02  0.1595645E-06  0.0000000E+00  0.9203657E-05
 -0.5050178E-02  0.0000000E+00 -0.5050505E-02  0.1692952E-06  0.0000000E+00  0.9252316E-05
 -0.5050018E-02  0.0000000E+00 -0.5050505E-02  0.1783542E-06  0.0000000E+00  0.9303757E-05
 -0.5049710E-02  0.0000000E+00 -0.5050505E-02  0.1867023E-06  0.0000000E+00  0.9357778E-05
 -0.5049253E-02  0.0000000E+00 -0.5050505E-02  0.1943027E-06  0.0000000E+00  0.9414164E-05
 -0.5048636E-02  0.0000000E+00 -0.5050505E-02  0.2011213E-06  0.0000000E+00  0.9472687E-05
 -0.5047442E-02  0.0000000E+00 -0.5050505E-02  0.2071265E-06  0.0000000E+00  0.9533114E-05
 -0.5045727E-02  0.0000000E+00 -0.5050505E-02  0.2122896E-06  0.0000000E+00  0.9595198E-05
 -0.5043261E-02  0.0000000E+00 -0.5050505E-02  0.2165849E-06  0.0000000E+00  0.9658688E-05
 -0.5038714E-02  0.0000000E+00 -0.5050505E-02  0.2199900E-06  0.0000000E+00  0.9723324E-05
 -0.5032318E-02  0.0000000E+00 -0.5050505E-02  0.2224855E-06  0.0000000E+00  0.9788839E-05
 -0.5022454E-02  0.0000000E+00 -0.5050505E-02  0.2240559E-06  0.0000000E+00  0.9854963E-05
 -0.5012589E-02  0.0000000E+00 -0.5050505E-02  0.2246890E-06  0.0000000E+00  0.9921419E-05
 -0.5002725E-02  0.0000000E+00 -0.5050505E-02  0.2243766E-06  0.0000000E+00  0.9987929E-05
 -0.4992860E-02  0.0000000E+00 -0.5050505E-02  0.2231140E-06  0.0000000E+00  0.1005421E-04
 -0.4976523E-02  0.0000000E+00 -0.5050505E-02  0.2209009E-06  0.0000000E+00  0.1011999E-04
 -0.4956794E-02  0.0000000E+00 -0.5050505E-02  0.2177406E-06  0.0000000E+00  0.1018497E-04
 -0.4937066E-02  0.0000000E+00 -0.5050505E-02  0.2136408E-06  0.0000000E+00  0.1024889E-04