title = "dataset feddes"
variables = "x", "y", "z", "h_w", "p_w", "s_w", "theta_w", "transp", "evap"
zone t = "Flow variables, solution time =  5.100E+01 days        " i =  100, j =  100, k =    1,  f=point
  0.0000000E+00  0.0000000E+00  0.0000000E+00 -0.5000000E+01 -0.5000000E+01  0.5313722E+00  0.2274273E+00  0.0000000E+00  0.0000000E+00
  0.1010101E-01  0.0000000E+00  0.0000000E+00 -0.5000000E+01 -0.5000000E+01  0.5313722E+00  0.2274273E+00  0.0000000E+00  0.0000000E+00
  0.2020202E-01  0.0000000E+00  0.0000000E+00 -0.5000000E+01 -0.5000000E+01  0.5313722E+00  0.2274273E+00  0.0000000E+00  0.0000000E+00
  0.3030303E-01  0.0000000E+00  0.0000000E+00 -0.5000000E+01 -0.5000000E+01  0.5313722E+00  0.2274273E+00  0.0000000E+00  0.0000000E+00
  0.4040404E-01  0.0000000E+00  0.0000000E+00 -0.5000000E+01 -0.5000000E+01  0.5313722E+00  0.2274273E+00  0.0000000E+00  0.0000000E+00
  0.5050505E-01  0.0000000E+00  0.0000000E+00 -0.5000000E+01 -0.5000000E+01  0.5313722E+00  0.2274273E+00  0.0000000E+00  0.0000000E+00
  0.6060606E-01  0.0000000E+00  0.0000000E+00 -0.5000000E+01 -0.5000000E+01  0.5313722E+00  0.2274273E+00  0.0000000E+00  0.0000000E+00
  0.7070707E-01  0.0000000E+00  0.0000000E+00 -0.5000000E+01 -0.5000000E+01  0.5313722E+00  0.2274273E+00  0.0000000E+00  0.0000000E+00
  0.8080808E-01  0.0000000E+00  0.0000000E+00 -0.5000000E+01 -0.5000000E+01  0.5313722E+00  0.2274273E+00  0.0000000E+00  0.0000000E+00
  0.9090909E-01  0.0000000E+00  0.0000000E+00 -0.5000000E+01 -0.5000000E+01  0.5313722E+00  0.2274273E+00  0.0000000E+00  0.0000000E+00
  0.1010101E+00  0.0000000E+00  0.0000000E+00 -0.5000000E+01 -0.5000000E+01  0.5313722E+00  0.2274273E+00  0.0000000E+00  0.0000000E+00
  0.1111111E+00  0.0000000E+00  0.0000000E+00 -0.5000000E+01 -0.5000000E+01  0.5313722E+00  0.2274273E+00  0.0000000E+00  0.0000000E+00
  0.1212121E+00  0.0000000E+00  0.0000000E+00 -0.5000000E+01 -0.5000000E+01  0.5313722E+00  0.2274273E+00  0.0000000E+00  0.0000000E+00
  0.1313131E+00  0.0000000E+00  0.0000000E+00 -0.5000000E+01 -0.5000000E+01  0.5313722E+00  0.2274273E+00  0.0000000E+00  0.0000000E+00
  0.1414142E+00  0.0000000E+00  0.0000000E+00 -0.5000000E+01 -0.5000000E+01  0.5313722E+00  0.2274273E+00  0.0000000E+00  0.0000000E+00
  0.1515152E+00  0.0000000E+00  0.0000000E+00 -0.5000000E+01 -0.5000000E+01  0.5313722E+00  0.2274273E+00  0.0000000E+00  0.0000000E+00
  0.1616162E+00  0.0000000E+00  0.0000000E+00 -0.5000000E+01 -0.5000000E+01  0.5313722E+00  0.2274273E+00  0.0000000E+00  0.0000000E+00
  0.1717172E+00  0.0000000E+00  0.0000000E+00 -0.5000000E+01 -0.5000000E+01  0.5313722E+00  0.2274273E+00  0.0000000E+00  0.0000000E+00
  0.1818182E+00  0.0000000E+00  0.0000000E+00 -0.5000000E+01 -0.5000000E+01  0.5313722E+00  0.2274273E+00  0.0000000E+00  0.0000000E+00
  0.1919192E+00  0.0000000E+00  0.0000000E+00 -0.5000000E+01 -0.5000000E+01  0.5313722E+00  0.2274273E+00  0.0000000E+00  0.0000000E+00
  0.2020202E+00  0.0000000E+00  0.0000000E+00 -0.5000000E+01 -0.5000000E+01  0.5313722E+00  0.2274273E+00  0.0000000E+00  0.0000000E+00
  0.2121212E+00  0.0000000E+00  0.0000000E+00 -0.5000000E+01 -0.5000000E+01  0.5313722E+00  0.2274273E+00  0.0000000E+00  0.0000000E+00
  0.2222222E+00  0.0000000E+00  0.0000000E+00 -0.5000000E+01 -0.5000000E+01  0.5313722E+00  0.2274273E+00  0.0000000E+00  0.0000000E+00
  0.2323232E+00  0.0000000E+00  0.0000000E+00 -0.5000000E+01 -0.5000000E+01  0.5313722E+00  0.2274273E+00  0.0000000E+00  0.0000000E+00
  0.2424242E+00  0.0000000E+00  0.0000000E+00 -0.5000000E+01 -0.5000000E+01  0.5313722E+00  0.2274273E+00  0.0000000E+00  0.0000000E+00
  0.2525252E+00  0.0000000E+00  0.0000000E+00 -0.5000000E+01 -0.5000000E+01  0.5313722E+00  0.2274273E+00  0.0000000E+00  0.0000000E+00
  0.2626262E+00  0.0000000E+00  0.0000000E+00 -0.5000000E+01 -0.5000000E+01  0.5313722E+00  0.2274273E+00  0.0000000E+00  0.0000000E+00
  0.2727273E+00  0.0000000E+00  0.0000000E+00 -0.5000000E+01 -0.5000000E+01  0.5313722E+00  0.2274273E+00  0.0000000E+00  0.0000000E+00
  0.2828283E+00  0.0000000E+00  0.0000000E+00 -0.5000000E+01 -0.5000000E+01  0.5313722E+00  0.2274273E+00  0.0000000E+00  0.0000000E+00
  0.2929293E+00  0.0000000E+00  0.0000000E+00 -0.5000000E+01 -0.5000000E+01  0.5313722E+00  0.2274273E+00  0.0000000E+00  0.0000000E+00
  0.3030303E+00  0.0000000E+00  0.0000000E+00 -0.5000000E+01 -0.5000000E+01  0.5313722E+00  0.2274273E+00  0.0000000E+00  0.0000000E+00
  0.3131313E+00  0.0000000E+00  0.0000000E+00 -0.5000000E+01 -0.5000000E+01  0.5313722E+00  0.2274273E+00  0.0000000E+00  0.0000000E+00
  0.3232324E+00  0.0000000E+00  0.0000000E+00 -0.5000000E+01 -0.5000000E+01  0.5313722E+00  0.2274273E+00  0.0000000E+00  0.0000000E+00
  0.3333334E+00  0.0000000E+00  0.0000000E+00 -0.5000000E+01 -0.5000000E+01  0.5313722E+00  0.2274273E+00  0.0000000E+00  0.0000000E+00
  0.3434344E+00  0.0000000E+00  0.0000000E+00 -0.5000000E+01 -0.5000000E+01  0.5313722E+00  0.2274273E+00  0.0000000E+00  0.0000000E+00
  0.3535354E+00  0.0000000E+00  0.0000000E+00 -0.5000000E+01 -0.5000000E+01  0.5313722E+00  0.2274273E+00  0.0000000E+00  0.0000000E+00
  0.3636364E+00  0.0000000E+00  0.0000000E+00 -0.5000000E+01 -0.5000000E+01  0.5313722E+00  0.2274273E+00  0.0000000E+00  0.0000000E+00
  0.3737375E+00  0.0000000E+00  0.0000000E+00 -0.5000000E+01 -0.5000000E+01  0.5313722E+00  0.2274273E+00  0.0000000E+00  0.0000000E+00
  0.3838385E+00  0.0000000E+00  0.0000000E+00 -0.5000000E+01 -0.5000000E+01  0.5313722E+00  0.2274273E+00  0.0000000E+00  0.0000000E+00
  0.3939395E+00  0.0000000E+00  0.0000000E+00 -0.5000000E+01 -0.5000000E+01  0.5313722E+00  0.2274273E+00  0.0000000E+00  0.0000000E+00
  0.4040405E+00  0.0000000E+00  0.0000000E+00 -0.5000000E+01 -0.5000000E+01  0.5313722E+00  0.2274273E+00  0.0000000E+00  0.0000000E+00
  0.4141415E+00  0.0000000E+00  0.0000000E+00 -0.5000000E+01 -0.5000000E+01  0.5313722E+00  0.2274273E+00  0.0000000E+00  0.0000000E+00
  0.4242426E+00  0.0000000E+00  0.0000000E+00 -0.5000000E+01 -0.5000000E+01  0.5313722E+00  0.2274273E+00  0.0000000E+00  0.0000000E+00
  0.4343436E+00  0.0000000E+00  0.0000000E+00 -0.5000000E+01 -0.5000000E+01  0.5313722E+00  0.2274273E+00  0.0000000E+00  0.0000000E+00
  0.4444446E+00  0.0000000E+00  0.0000000E+00 -0.5000000E+01 -0.5000000E+01  0.5313722E+00  0.2274273E+00  0.0000000E+00  0.0000000E+00
  0.4545456E+00  0.0000000E+00  0.0000000E+00 -0.5000000E+01 -0.5000000E+01  0.5313722E+00  0.2274273E+00  0.0000000E+00  0.0000000E+00
  0.4646466E+00  0.0000000E+00  0.0000000E+00 -0.5000000E+01 -0.5000000E+01  0.5313722E+00  0.2274273E+00  0.0000000E+00  0.0000000E+00
  0.4747477E+00  0.0000000E+00  0.0000000E+00 -0.5000000E+01 -0.5000000E+01  0.5313722E+00  0.2274273E+00  0.0000000E+00  0.0000000E+00
  0.4848487E+00  0.0000000E+00  0.0000000E+00 -0.5000000E+01 -0.5000000E+01  0.5313722E+00  0.2274273E+00  0.0000000E+00  0.0000000E+00
  0.4949497E+00  0.0000000E+00  0.0000000E+00 -0.5000000E+01 -0.5000000E+01  0.5313722E+00  0.2274273E+00  0.0000000E+00  0.0000000E+00
  0.5050507E+00  0.0000000E+00  0.0000000E+00 -0.5000000E+01 -0.5000000E+01  0.5313722E+00  0.2274273E+00  0.0000000E+00  0.0000000E+00
  0.5151517E+00  0.0000000E+00  0.0000000E+00 -0.5000000E+01 -0.5000000E+01  0.5313722E+00  0.2274273E+00  0.0000000E+00  0.0000000E+00
  0.5252528E+00  0.0000000E+00  0.0000000E+00 -0.5000000E+01 -0.5000000E+01  0.5313722E+00  0.2274273E+00  0.0000000E+00  0.0000000E+00
  0.5353538E+00  0.0000000E+00  0.0000000E+00 -0.5000000E+01 -0.5000000E+01  0.5313722E+00  0.2274273E+00  0.0000000E+00  0.0000000E+00
  0.5454548E+00  0.0000000E+00  0.0000000E+00 -0.5000000E+01 -0.5000000E+01  0.5313722E+00  0.2274273E+00  0.0000000E+00  0.0000000E+00
  0.5555558E+00  0.0000000E+00  0.0000000E+00 -0.5000000E+01 -0.5000000E+01  0.5313722E+00  0.2274273E+00  0.0000000E+00  0.0000000E+00
  0.5656568E+00  0.0000000E+00  0.0000000E+00 -0.5000000E+01 -0.5000000E+01  0.5313722E+00  0.2274273E+00  0.0000000E+00  0.0000000E+00
  0.5757579E+00  0.0000000E+00  0.0000000E+00 -0.5000000E+01 -0.5000000E+01  0.5313722E+00  0.2274273E+00  0.0000000E+00  0.0000000E+00
  0.5858589E+00  0.0000000E+00  0.0000000E+00 -0.5000000E+01 -0.5000000E+01  0.5313722E+00  0.2274273E+00  0.0000000E+00  0.0000000E+00
  0.5959599E+00  0.0000000E+00  0.0000000E+00 -0.5000000E+01 -0.5000000E+01  0.5313722E+00  0.2274273E+00  0.0000000E+00  0.0000000E+00
  0.6060609E+00  0.0000000E+00  0.0000000E+00 -0.5000000E+01 -0.5000000E+01  0.5313722E+00  0.2274273E+00  0.0000000E+00  0.0000000E+00
  0.6161619E+00  0.0000000E+00  0.0000000E+00 -0.5000000E+01 -0.5000000E+01  0.5313722E+00  0.2274273E+00  0.0000000E+00  0.0000000E+00
  0.6262630E+00  0.0000000E+00  0.0000000E+00 -0.5000000E+01 -0.5000000E+01  0.5313722E+00  0.2274273E+00  0.0000000E+00  0.0000000E+00
  0.6363640E+00  0.0000000E+00  0.0000000E+00 -0.5000000E+01 -0.5000000E+01  0.5313722E+00  0.2274273E+00  0.0000000E+00  0.0000000E+00
  0.6464650E+00  0.0000000E+00  0.0000000E+00 -0.5000000E+01 -0.5000000E+01  0.5313722E+00  0.2274273E+00  0.0000000E+00  0.0000000E+00
  0.6565660E+00  0.0000000E+00  0.0000000E+00 -0.5000000E+01 -0.5000000E+01  0.5313722E+00  0.2274273E+00  0.0000000E+00  0.0000000E+00
  0.6666670E+00  0.0000000E+00  0.0000000E+00 -0.5000000E+01 -0.5000000E+01  0.5313722E+00  0.2274273E+00  0.0000000E+00  0.0000000E+00
  0.6767681E+00  0.0000000E+00  0.0000000E+00 -0.5000000E+01 -0.5000000E+01  0.5313722E+00  0.2274273E+00  0.0000000E+00  0.0000000E+00
  0.6868691E+00  0.0000000E+00  0.0000000E+00 -0.5000000E+01 -0.5000000E+01  0.5313722E+00  0.2274273E+00  0.0000000E+00  0.0000000E+00
  0.6969701E+00  0.0000000E+00  0.0000000E+00 -0.5000000E+01 -0.5000000E+01  0.5313722E+00  0.2274273E+00  0.0000000E+00  0.0000000E+00
  0.7070711E+00  0.0000000E+00  0.0000000E+00 -0.5000000E+01 -0.5000000E+01  0.5313722E+00  0.2274273E+00  0.0000000E+00  0.0000000E+00
  0.7171721E+00  0.0000000E+00  0.0000000E+00 -0.5000000E+01 -0.5000000E+01  0.5313722E+00  0.2274273E+00  0.0000000E+00  0.0000000E+00
  0.7272732E+00  0.0000000E+00  0.0000000E+00 -0.5000000E+01 -0.5000000E+01  0.5313722E+00  0.2274273E+00  0.0000000E+00  0.0000000E+00
  0.7373742E+00  0.0000000E+00  0.0000000E+00 -0.5000000E+01 -0.5000000E+01  0.5313722E+00  0.2274273E+00  0.0000000E+00  0.0000000E+00
  0.7474752E+00  0.0000000E+00  0.0000000E+00 -0.5000000E+01 -0.5000000E+01  0.5313722E+00  0.2274273E+00  0.0000000E+00  0.0000000E+00
  0.7575762E+00  0.0000000E+00  0.0000000E+00 -0.5000000E+01 -0.5000000E+01  0.5313722E+00  0.2274273E+00  0.0000000E+00  0.0000000E+00
  0.7676772E+00  0.0000000E+00  0.0000000E+00 -0.5000000E+01 -0.5000000E+01  0.5313722E+00  0.2274273E+00  0.0000000E+00  0.0000000E+00
  0.7777783E+00  0.0000000E+00  0.0000000E+00 -0.5000000E+01 -0.5000000E+01  0.5313722E+00  0.2274273E+00  0.0000000E+00  0.0000000E+00
  0.7878793E+00  0.0000000E+00  0.0000000E+00 -0.5000000E+01 -0.5000000E+01  0.5313722E+00  0.2274273E+00  0.0000000E+00  0.0000000E+00
  0.7979803E+00  0.0000000E+00  0.0000000E+00 -0.5000000E+01 -0.5000000E+01  0.5313722E+00  0.2274273E+00  0.0000000E+00  0.0000000E+00
  0.8080813E+00  0.0000000E+00  0.0000000E+00 -0.5000000E+01 -0.5000000E+01  0.5313722E+00  0.2274273E+00  0.0000000E+00  0.0000000E+00
  0.8181823E+00  0.0000000E+00  0.0000000E+00 -0.5000000E+01 -0.5000000E+01  0.5313722E+00  0.2274273E+00  0.0000000E+00  0.0000000E+00
  0.8282834E+00  0.0000000E+00  0.0000000E+00 -0.5000000E+01 -0.5000000E+01  0.5313722E+00  0.2274273E+00  0.0000000E+00  0.0000000E+00
  0.8383844E+00  0.0000000E+00  0.0000000E+00 -0.5000000E+01 -0.5000000E+01  0.5313722E+00  0.2274273E+00  0.0000000E+00  0.0000000E+00
  0.8484854E+00  0.0000000E+00  0.0000000E+00 -0.5000000E+01 -0.5000000E+01  0.5313722E+00  0.2274273E+00  0.0000000E+00  0.0000000E+00
  0.8585864E+00  0.0000000E+00  0.0000000E+00 -0.5000000E+01 -0.5000000E+01  0.5313722E+00  0.2274273E+00  0.0000000E+00  0.0000000E+00
  0.8686875E+00  0.0000000E+00  0.0000000E+00 -0.5000000E+01 -0.5000000E+01  0.5313722E+00  0.2274273E+00  0.0000000E+00  0.0000000E+00
  0.8787885E+00  0.0000000E+00  0.0000000E+00 -0.5000000E+01 -0.5000000E+01  0.5313722E+00  0.2274273E+00  0.0000000E+00  0.0000000E+00
  0.8888895E+00  0.0000000E+00  0.0000000E+00 -0.5000000E+01 -0.5000000E+01  0.5313722E+00  0.2274273E+00  0.0000000E+00  0.0000000E+00
  0.8989905E+00  0.0000000E+00  0.0000000E+00 -0.5000000E+01 -0.5000000E+01  0.5313722E+00  0.2274273E+00  0.0000000E+00  0.0000000E+00
  0.9090915E+00  0.0000000E+00  0.0000000E+00 -0.5000000E+01 -0.5000000E+01  0.5313722E+00  0.2274273E+00  0.0000000E+00  0.0000000E+00
  0.9191926E+00  0.0000000E+00  0.0000000E+00 -0.5000000E+01 -0.5000000E+01  0.5313722E+00  0.2274273E+00  0.0000000E+00  0.0000000E+00
  0.9292936E+00  0.0000000E+00  0.0000000E+00 -0.5000000E+01 -0.5000000E+01  0.5313722E+00  0.2274273E+00  0.0000000E+00  0.0000000E+00
  0.9393946E+00  0.0000000E+00  0.0000000E+00 -0.5000000E+01 -0.5000000E+01  0.5313722E+00  0.2274273E+00  0.0000000E+00  0.0000000E+00
  0.9494956E+00  0.0000000E+00  0.0000000E+00 -0.5000000E+01 -0.5000000E+01  0.5313722E+00  0.2274273E+00  0.0000000E+00  0.0000000E+00
  0.9595966E+00  0.0000000E+00  0.0000000E+00 -0.5000000E+01 -0.5000000E+01  0.5313722E+00  0.2274273E+00  0.0000000E+00  0.0000000E+00
  0.9696977E+00  0.0000000E+00  0.0000000E+00 -0.5000000E+01 -0.5000000E+01  0.5313722E+00  0.2274273E+00  0.0000000E+00  0.0000000E+00
  0.9797987E+00  0.0000000E+00  0.0000000E+00 -0.5000000E+01 -0.5000000E+01  0.5313722E+00  0.2274273E+00  0.0000000E+00  0.0000000E+00
  0.9898997E+00  0.0000000E+00  0.0000000E+00 -0.5000000E+01 -0.5000000E+01  0.5313722E+00  0.2274273E+00  0.0000000E+00  0.0000000E+00
  0.1000001E+01  0.0000000E+00  0.5826218E-18 -0.5000099E+01 -0.5000099E+01  0.5313690E+00  0.2274259E+00  0.0000000E+00  0.0000000E+00
  0.0000000E+00  0.0000000E+00  0.5826219E-18 -0.5000168E+01 -0.5010269E+01  0.5310420E+00  0.2272860E+00  0.0000000E+00  0.0000000E+00
  0.1010101E-01  0.0000000E+00  0.5826219E-18 -0.5000168E+01 -0.5010269E+01  0.5310420E+00  0.2272860E+00  0.0000000E+00  0.0000000E+00
  0.2020202E-01  0.0000000E+00  0.5826219E-18 -0.5000168E+01 -0.5010269E+01  0.5310420E+00  0.2272860E+00  0.0000000E+00  0.0000000E+00
  0.3030303E-01  0.0000000E+00  0.5826219E-18 -0.5000168E+01 -0.5010269E+01  0.5310420E+00  0.2272860E+00  0.0000000E+00  0.0000000E+00
  0.4040404E-01  0.0000000E+00  0.5826219E-18 -0.5000169E+01 -0.5010270E+01  0.5310420E+00  0.2272860E+00  0.0000000E+00  0.0000000E+00
  0.5050505E-01  0.0000000E+00  0.5826219E-18 -0.5000169E+01 -0.5010270E+01  0.5310420E+00  0.2272860E+00  0.0000000E+00  0.0000000E+00
  0.6060606E-01  0.0000000E+00  0.5826219E-18 -0.5000169E+01 -0.5010270E+01  0.5310420E+00  0.2272860E+00  0.0000000E+00  0.0000000E+00
  0.7070707E-01  0.0000000E+00  0.5826219E-18 -0.5000170E+01 -0.5010271E+01  0.5310420E+00  0.2272860E+00  0.0000000E+00  0.0000000E+00
  0.8080808E-01  0.0000000E+00  0.5826219E-18 -0.5000171E+01 -0.5010272E+01  0.5310419E+00  0.2272860E+00  0.0000000E+00  0.0000000E+00
  0.9090909E-01  0.0000000E+00  0.5826219E-18 -0.5000171E+01 -0.5010272E+01  0.5310419E+00  0.2272859E+00  0.0000000E+00  0.0000000E+00
  0.1010101E+00  0.0000000E+00  0.5826219E-18 -0.5000172E+01 -0.5010273E+01  0.5310419E+00  0.2272859E+00  0.0000000E+00  0.0000000E+00
  0.1111111E+00  0.0000000E+00  0.5826219E-18 -0.5000173E+01 -0.5010274E+01  0.5310419E+00  0.2272859E+00  0.0000000E+00  0.0000000E+00
  0.1212121E+00  0.0000000E+00  0.5826219E-18 -0.5000174E+01 -0.5010275E+01  0.5310418E+00  0.2272859E+00  0.0000000E+00  0.0000000E+00
  0.1313131E+00  0.0000000E+00  0.5826219E-18 -0.5000175E+01 -0.5010276E+01  0.5310418E+00  0.2272859E+00  0.0000000E+00  0.0000000E+00
  0.1414142E+00  0.0000000E+00  0.5826219E-18 -0.5000176E+01 -0.5010277E+01  0.5310418E+00  0.2272859E+00  0.0000000E+00  0.0000000E+00
  0.1515152E+00  0.0000000E+00  0.5826219E-18 -0.5000177E+01 -0.5010278E+01  0.5310417E+00  0.2272859E+00  0.0000000E+00  0.0000000E+00
  0.1616162E+00  0.0000000E+00  0.5826219E-18 -0.5000178E+01 -0.5010279E+01  0.5310417E+00  0.2272858E+00  0.0000000E+00  0.0000000E+00
  0.1717172E+00  0.0000000E+00  0.5826219E-18 -0.5000179E+01 -0.5010280E+01  0.5310417E+00  0.2272858E+00  0.0000000E+00  0.0000000E+00
  0.1818182E+00  0.0000000E+00  0.5826219E-18 -0.5000181E+01 -0.5010282E+01  0.5310416E+00  0.2272858E+00  0.0000000E+00  0.0000000E+00
  0.1919192E+00  0.0000000E+00  0.5826219E-18 -0.5000182E+01 -0.5010283E+01  0.5310416E+00  0.2272858E+00  0.0000000E+00  0.0000000E+00
  0.2020202E+00  0.0000000E+00  0.5826219E-18 -0.5000183E+01 -0.5010284E+01  0.5310415E+00  0.2272858E+00  0.0000000E+00  0.0000000E+00
  0.2121212E+00  0.0000000E+00  0.5826219E-18 -0.5000185E+01 -0.5010286E+01  0.5310415E+00  0.2272858E+00  0.0000000E+00  0.0000000E+00
  0.2222222E+00  0.0000000E+00  0.5826219E-18 -0.5000186E+01 -0.5010287E+01  0.5310414E+00  0.2272857E+00  0.0000000E+00  0.0000000E+00
  0.2323232E+00  0.0000000E+00  0.5826219E-18 -0.5000187E+01 -0.5010288E+01  0.5310414E+00  0.2272857E+00  0.0000000E+00  0.0000000E+00
  0.2424242E+00  0.0000000E+00  0.5826219E-18 -0.5000189E+01 -0.5010290E+01  0.5310414E+00  0.2272857E+00  0.0000000E+00  0.0000000E+00
  0.2525252E+00  0.0000000E+00  0.5826219E-18 -0.5000190E+01 -0.5010291E+01  0.5310413E+00  0.2272857E+00  0.0000000E+00  0.0000000E+00
  0.2626262E+00  0.0000000E+00  0.5826219E-18 -0.5000191E+01 -0.5010292E+01  0.5310413E+00  0.2272857E+00  0.0000000E+00  0.0000000E+00
  0.2727273E+00  0.0000000E+00  0.5826219E-18 -0.5000193E+01 -0.5010294E+01  0.5310412E+00  0.2272856E+00  0.0000000E+00  0.0000000E+00
  0.2828283E+00  0.0000000E+00  0.5826219E-18 -0.5000194E+01 -0.5010295E+01  0.5310412E+00  0.2272856E+00  0.0000000E+00  0.0000000E+00
  0.2929293E+00  0.0000000E+00  0.5826219E-18 -0.5000196E+01 -0.5010297E+01  0.5310411E+00  0.2272856E+00  0.0000000E+00  0.0000000E+00
  0.3030303E+00  0.0000000E+00  0.5826219E-18 -0.5000197E+01 -0.5010298E+01  0.5310411E+00  0.2272856E+00  0.0000000E+00  0.0000000E+00
  0.3131313E+00  0.0000000E+00  0.5826219E-18 -0.5000198E+01 -0.5010299E+01  0.5310411E+00  0.2272856E+00  0.0000000E+00  0.0000000E+00
  0.3232324E+00  0.0000000E+00  0.5826219E-18 -0.5000199E+01 -0.5010300E+01  0.5310410E+00  0.2272856E+00  0.0000000E+00  0.0000000E+00
  0.3333334E+00  0.0000000E+00  0.5826219E-18 -0.5000201E+01 -0.5010302E+01  0.5310410E+00  0.2272855E+00  0.0000000E+00  0.0000000E+00
  0.3434344E+00  0.0000000E+00  0.5826219E-18 -0.5000202E+01 -0.5010303E+01  0.5310409E+00  0.2272855E+00  0.0000000E+00  0.0000000E+00
  0.3535354E+00  0.0000000E+00  0.5826219E-18 -0.5000203E+01 -0.5010304E+01  0.5310409E+00  0.2272855E+00  0.0000000E+00  0.0000000E+00
  0.3636364E+00  0.0000000E+00  0.5826219E-18 -0.5000204E+01 -0.5010305E+01  0.5310409E+00  0.2272855E+00  0.0000000E+00  0.0000000E+00
  0.3737375E+00  0.0000000E+00  0.5826219E-18 -0.5000205E+01 -0.5010306E+01  0.5310408E+00  0.2272855E+00  0.0000000E+00  0.0000000E+00
  0.3838385E+00  0.0000000E+00  0.5826219E-18 -0.5000206E+01 -0.5010307E+01  0.5310408E+00  0.2272855E+00  0.0000000E+00  0.0000000E+00
  0.3939395E+00  0.0000000E+00  0.5826219E-18 -0.5000207E+01 -0.5010308E+01  0.5310408E+00  0.2272855E+00  0.0000000E+00  0.0000000E+00
  0.4040405E+00  0.0000000E+00  0.5826219E-18 -0.5000208E+01 -0.5010309E+01  0.5310408E+00  0.2272854E+00  0.0000000E+00  0.0000000E+00
  0.4141415E+00  0.0000000E+00  0.5826219E-18 -0.5000208E+01 -0.5010309E+01  0.5310407E+00  0.2272854E+00  0.0000000E+00  0.0000000E+00
  0.4242426E+00  0.0000000E+00  0.5826219E-18 -0.5000209E+01 -0.5010310E+01  0.5310407E+00  0.2272854E+00  0.0000000E+00  0.0000000E+00
  0.4343436E+00  0.0000000E+00  0.5826219E-18 -0.5000210E+01 -0.5010311E+01  0.5310407E+00  0.2272854E+00  0.0000000E+00  0.0000000E+00
  0.4444446E+00  0.0000000E+00  0.5826219E-18 -0.5000210E+01 -0.5010311E+01  0.5310407E+00  0.2272854E+00  0.0000000E+00  0.0000000E+00
  0.4545456E+00  0.0000000E+00  0.5826219E-18 -0.5000210E+01 -0.5010311E+01  0.5310407E+00  0.2272854E+00  0.0000000E+00  0.0000000E+00
  0.4646466E+00  0.0000000E+00  0.5826219E-18 -0.5000211E+01 -0.5010312E+01  0.5310407E+00  0.2272854E+00  0.0000000E+00  0.0000000E+00
  0.4747477E+00  0.0000000E+00  0.5826219E-18 -0.5000211E+01 -0.5010312E+01  0.5310406E+00  0.2272854E+00  0.0000000E+00  0.0000000E+00
  0.4848487E+00  0.0000000E+00  0.5826219E-18 -0.5000211E+01 -0.5010312E+01  0.5310406E+00  0.2272854E+00  0.0000000E+00  0.0000000E+00
  0.4949497E+00  0.0000000E+00  0.5826219E-18 -0.5000211E+01 -0.5010312E+01  0.5310406E+00  0.2272854E+00  0.0000000E+00  0.0000000E+00
  0.5050507E+00  0.0000000E+00  0.5826219E-18 -0.5000211E+01 -0.5010312E+01  0.5310406E+00  0.2272854E+00  0.0000000E+00  0.0000000E+00
  0.5151517E+00  0.0000000E+00  0.5826219E-18 -0.5000211E+01 -0.5010312E+01  0.5310407E+00  0.2272854E+00  0.0000000E+00  0.0000000E+00
  0.5252528E+00  0.0000000E+00  0.5826219E-18 -0.5000210E+01 -0.5010311E+01  0.5310407E+00  0.2272854E+00  0.0000000E+00  0.0000000E+00
  0.5353538E+00  0.0000000E+00  0.5826219E-18 -0.5000210E+01 -0.5010311E+01  0.5310407E+00  0.2272854E+00  0.0000000E+00  0.0000000E+00
  0.5454548E+00  0.0000000E+00  0.5826219E-18 -0.5000210E+01 -0.5010311E+01  0.5310407E+00  0.2272854E+00  0.0000000E+00  0.0000000E+00
  0.5555558E+00  0.0000000E+00  0.5826219E-18 -0.5000209E+01 -0.5010310E+01  0.5310407E+00  0.2272854E+00  0.0000000E+00  0.0000000E+00
  0.5656568E+00  0.0000000E+00  0.5826219E-18 -0.5000208E+01 -0.5010309E+01  0.5310407E+00  0.2272854E+00  0.0000000E+00  0.0000000E+00
  0.5757579E+00  0.0000000E+00  0.5826219E-18 -0.5000208E+01 -0.5010309E+01  0.5310408E+00  0.2272854E+00  0.0000000E+00  0.0000000E+00
  0.5858589E+00  0.0000000E+00  0.5826219E-18 -0.5000207E+01 -0.5010308E+01  0.5310408E+00  0.2272855E+00  0.0000000E+00  0.0000000E+00
  0.5959599E+00  0.0000000E+00  0.5826219E-18 -0.5000206E+01 -0.5010307E+01  0.5310408E+00  0.2272855E+00  0.0000000E+00  0.0000000E+00
  0.6060609E+00  0.0000000E+00  0.5826219E-18 -0.5000205E+01 -0.5010306E+01  0.5310408E+00  0.2272855E+00  0.0000000E+00  0.0000000E+00
  0.6161619E+00  0.0000000E+00  0.5826219E-18 -0.5000204E+01 -0.5010305E+01  0.5310409E+00  0.2272855E+00  0.0000000E+00  0.0000000E+00
  0.6262630E+00  0.0000000E+00  0.5826219E-18 -0.5000203E+01 -0.5010304E+01  0.5310409E+00  0.2272855E+00  0.0000000E+00  0.0000000E+00
  0.6363640E+00  0.0000000E+00  0.5826219E-18 -0.5000202E+01 -0.5010303E+01  0.5310409E+00  0.2272855E+00  0.0000000E+00  0.0000000E+00
  0.6464650E+00  0.0000000E+00  0.5826219E-18 -0.5000200E+01 -0.5010301E+01  0.5310410E+00  0.2272855E+00  0.0000000E+00  0.0000000E+00
  0.6565660E+00  0.0000000E+00  0.5826219E-18 -0.5000199E+01 -0.5010300E+01  0.5310410E+00  0.2272856E+00  0.0000000E+00  0.0000000E+00
  0.6666670E+00  0.0000000E+00  0.5826219E-18 -0.5000198E+01 -0.5010299E+01  0.5310411E+00  0.2272856E+00  0.0000000E+00  0.0000000E+00
  0.6767681E+00  0.0000000E+00  0.5826219E-18 -0.5000196E+01 -0.5010297E+01  0.5310411E+00  0.2272856E+00  0.0000000E+00  0.0000000E+00
  0.6868691E+00  0.0000000E+00  0.5826219E-18 -0.5000195E+01 -0.5010296E+01  0.5310412E+00  0.2272856E+00  0.0000000E+00  0.0000000E+00
  0.6969701E+00  0.0000000E+00  0.5826219E-18 -0.5000194E+01 -0.5010295E+01  0.5310412E+00  0.2272856E+00  0.0000000E+00  0.0000000E+00
  0.7070711E+00  0.0000000E+00  0.5826219E-18 -0.5000192E+01 -0.5010293E+01  0.5310413E+00  0.2272857E+00  0.0000000E+00  0.0000000E+00
  0.7171721E+00  0.0000000E+00  0.5826219E-18 -0.5000191E+01 -0.5010292E+01  0.5310413E+00  0.2272857E+00  0.0000000E+00  0.0000000E+00
  0.7272732E+00  0.0000000E+00  0.5826219E-18 -0.5000189E+01 -0.5010290E+01  0.5310413E+00  0.2272857E+00  0.0000000E+00  0.0000000E+00
  0.7373742E+00  0.0000000E+00  0.5826219E-18 -0.5000188E+01 -0.5010289E+01  0.5310414E+00  0.2272857E+00  0.0000000E+00  0.0000000E+00
  0.7474752E+00  0.0000000E+00  0.5826219E-18 -0.5000186E+01 -0.5010287E+01  0.5310414E+00  0.2272857E+00  0.0000000E+00  0.0000000E+00
  0.7575762E+00  0.0000000E+00  0.5826219E-18 -0.5000185E+01 -0.5010286E+01  0.5310415E+00  0.2272858E+00  0.0000000E+00  0.0000000E+00
  0.7676772E+00  0.0000000E+00  0.5826219E-18 -0.5000183E+01 -0.5010284E+01  0.5310415E+00  0.2272858E+00  0.0000000E+00  0.0000000E+00
  0.7777783E+00  0.0000000E+00  0.5826219E-18 -0.5000182E+01 -0.5010283E+01  0.5310416E+00  0.2272858E+00  0.0000000E+00  0.0000000E+00
  0.7878793E+00  0.0000000E+00  0.5826219E-18 -0.5000180E+01 -0.5010281E+01  0.5310416E+00  0.2272858E+00  0.0000000E+00  0.0000000E+00
  0.7979803E+00  0.0000000E+00  0.5826219E-18 -0.5000179E+01 -0.5010280E+01  0.5310417E+00  0.2272858E+00  0.0000000E+00  0.0000000E+00
  0.8080813E+00  0.0000000E+00  0.5826219E-18 -0.5000177E+01 -0.5010278E+01  0.5310417E+00  0.2272859E+00  0.0000000E+00  0.0000000E+00
  0.8181823E+00  0.0000000E+00  0.5826219E-18 -0.5000176E+01 -0.5010277E+01  0.5310418E+00  0.2272859E+00  0.0000000E+00  0.0000000E+00
  0.8282834E+00  0.0000000E+00  0.5826219E-18 -0.5000175E+01 -0.5010276E+01  0.5310418E+00  0.2272859E+00  0.0000000E+00  0.0000000E+00
  0.8383844E+00  0.0000000E+00  0.5826219E-18 -0.5000173E+01 -0.5010274E+01  0.5310419E+00  0.2272859E+00  0.0000000E+00  0.0000000E+00
  0.8484854E+00  0.0000000E+00  0.5826219E-18 -0.5000172E+01 -0.5010273E+01  0.5310419E+00  0.2272859E+00  0.0000000E+00  0.0000000E+00
  0.8585864E+00  0.0000000E+00  0.5826219E-18 -0.5000171E+01 -0.5010272E+01  0.5310419E+00  0.2272859E+00  0.0000000E+00  0.0000000E+00
  0.8686875E+00  0.0000000E+00  0.5826219E-18 -0.5000170E+01 -0.5010271E+01  0.5310420E+00  0.2272860E+00  0.0000000E+00  0.0000000E+00
  0.8787885E+00  0.0000000E+00  0.5826219E-18 -0.5000169E+01 -0.5010270E+01  0.5310420E+00  0.2272860E+00  0.0000000E+00  0.0000000E+00
  0.8888895E+00  0.0000000E+00  0.5826219E-18 -0.5000168E+01 -0.5010269E+01  0.5310420E+00  0.2272860E+00  0.0000000E+00  0.0000000E+00
  0.8989905E+00  0.0000000E+00  0.5826219E-18 -0.5000167E+01 -0.5010268E+01  0.5310421E+00  0.2272860E+00  0.0000000E+00  0.0000000E+00
  0.9090915E+00  0.0000000E+00  0.5826219E-18 -0.5000166E+01 -0.5010267E+01  0.5310421E+00  0.2272860E+00  0.0000000E+00  0.0000000E+00
  0.9191926E+00  0.0000000E+00  0.5826219E-18 -0.5000166E+01 -0.5010267E+01  0.5310421E+00  0.2272860E+00  0.0000000E+00  0.0000000E+00
  0.9292936E+00  0.0000000E+00  0.5826219E-18 -0.5000165E+01 -0.5010266E+01  0.5310421E+00  0.2272860E+00  0.0000000E+00  0.0000000E+00
  0.9393946E+00  0.0000000E+00  0.5826219E-18 -0.5000165E+01 -0.5010266E+01  0.5310421E+00  0.2272860E+00  0.0000000E+00  0.0000000E+00
  0.9494956E+00  0.0000000E+00  0.5826219E-18 -0.5000165E+01 -0.5010266E+01  0.5310421E+00  0.2272860E+00  0.0000000E+00  0.0000000E+00
  0.9595966E+00  0.0000000E+00  0.5826219E-18 -0.5000165E+01 -0.5010266E+01  0.5310421E+00  0.2272860E+00  0.0000000E+00  0.0000000E+00
  0.9696977E+00  0.0000000E+00  0.5826219E-18 -0.5000166E+01 -0.5010267E+01  0.5310421E+00  0.2272860E+00  0.0000000E+00  0.0000000E+00
  0.9797987E+00  0.0000000E+00  0.5826219E-18 -0.5000169E+01 -0.5010270E+01  0.5310420E+00  0.2272860E+00  0.0000000E+00  0.0000000E+00
  0.9898997E+00  0.0000000E+00  0.5826219E-18 -0.5000176E+01 -0.5010277E+01  0.5310418E+00  0.2272859E+00  0.0000000E+00  0.0000000E+00
  0.1000001E+01  0.0000000E+00  0.1491512E-15 -0.5000199E+01 -0.5010300E+01  0.5310410E+00  0.2272856E+00  0.0000000E+00  0.0000000E+00
  0.0000000E+00  0.0000000E+00  0.1491512E-15 -0.5000337E+01 -0.5020539E+01  0.5307126E+00  0.2271450E+00  0.0000000E+00  0.0000000E+00
  0.1010101E-01  0.0000000E+00  0.1491512E-15 -0.5000337E+01 -0.5020539E+01  0.5307126E+00  0.2271450E+00  0.0000000E+00  0.0000000E+00
  0.2020202E-01  0.0000000E+00  0.1491512E-15 -0.5000337E+01 -0.5020539E+01  0.5307126E+00  0.2271450E+00  0.0000000E+00  0.0000000E+00
  0.3030303E-01  0.0000000E+00  0.1491512E-15 -0.5000338E+01 -0.5020540E+01  0.5307126E+00  0.2271450E+00  0.0000000E+00  0.0000000E+00
  0.4040404E-01  0.0000000E+00  0.1491512E-15 -0.5000338E+01 -0.5020540E+01  0.5307126E+00  0.2271450E+00  0.0000000E+00  0.0000000E+00
  0.5050505E-01  0.0000000E+00  0.1491512E-15 -0.5000339E+01 -0.5020541E+01  0.5307126E+00  0.2271450E+00  0.0000000E+00  0.0000000E+00
  0.6060606E-01  0.0000000E+00  0.1491512E-15 -0.5000340E+01 -0.5020542E+01  0.5307125E+00  0.2271450E+00  0.0000000E+00  0.0000000E+00
  0.7070707E-01  0.0000000E+00  0.1491512E-15 -0.5000341E+01 -0.5020543E+01  0.5307125E+00  0.2271450E+00  0.0000000E+00  0.0000000E+00
  0.8080808E-01  0.0000000E+00  0.1491512E-15 -0.5000342E+01 -0.5020544E+01  0.5307125E+00  0.2271449E+00  0.0000000E+00  0.0000000E+00
  0.9090909E-01  0.0000000E+00  0.1491512E-15 -0.5000344E+01 -0.5020546E+01  0.5307124E+00  0.2271449E+00  0.0000000E+00  0.0000000E+00
  0.1010101E+00  0.0000000E+00  0.1491512E-15 -0.5000345E+01 -0.5020547E+01  0.5307124E+00  0.2271449E+00  0.0000000E+00  0.0000000E+00
  0.1111111E+00  0.0000000E+00  0.1491512E-15 -0.5000347E+01 -0.5020549E+01  0.5307123E+00  0.2271449E+00  0.0000000E+00  0.0000000E+00
  0.1212121E+00  0.0000000E+00  0.1491512E-15 -0.5000349E+01 -0.5020551E+01  0.5307122E+00  0.2271448E+00  0.0000000E+00  0.0000000E+00
  0.1313131E+00  0.0000000E+00  0.1491512E-15 -0.5000351E+01 -0.5020553E+01  0.5307122E+00  0.2271448E+00  0.0000000E+00  0.0000000E+00
  0.1414142E+00  0.0000000E+00  0.1491512E-15 -0.5000353E+01 -0.5020555E+01  0.5307121E+00  0.2271448E+00  0.0000000E+00  0.0000000E+00
  0.1515152E+00  0.0000000E+00  0.1491512E-15 -0.5000355E+01 -0.5020557E+01  0.5307120E+00  0.2271448E+00  0.0000000E+00  0.0000000E+00
  0.1616162E+00  0.0000000E+00  0.1491512E-15 -0.5000358E+01 -0.5020560E+01  0.5307120E+00  0.2271447E+00  0.0000000E+00  0.0000000E+00
  0.1717172E+00  0.0000000E+00  0.1491512E-15 -0.5000360E+01 -0.5020562E+01  0.5307119E+00  0.2271447E+00  0.0000000E+00  0.0000000E+00
  0.1818182E+00  0.0000000E+00  0.1491512E-15 -0.5000363E+01 -0.5020565E+01  0.5307118E+00  0.2271447E+00  0.0000000E+00  0.0000000E+00