title = "dataset feddes"
variables = "time", "absolute mass balance error", "relative mass balance error", "absolute cumulative mass balance error", "relative cumulative mass balance error" 
zone t = "mass balance error -  variably saturated flow", f=point
  1.0000E-10 -1.6952E-20 -7.6688E-18 -1.6952E-20 -7.6688E-18
  6.0000E-10  1.5523E-19  7.0221E-17  1.3827E-19  6.2552E-17
  3.1000E-09 -9.0620E-19 -4.0995E-16 -7.6793E-19 -3.4739E-16
  1.5600E-08 -9.2879E-19 -4.2016E-16 -1.6967E-18 -7.6756E-16
  7.8100E-08  6.3095E-19  2.8543E-16 -1.0658E-18 -4.8213E-16
  3.9060E-07  1.4724E-18  6.6607E-16  4.0661E-19  1.8394E-16
  1.9531E-06 -2.9566E-18 -1.3375E-15 -2.5499E-18 -1.1535E-15
  9.7656E-06  1.0387E-19  4.6990E-17 -2.4461E-18 -1.1065E-15
  4.8828E-05  3.0842E-18  1.3952E-15  6.3815E-19  2.8868E-16
  2.4414E-04 -1.0887E-18 -4.9250E-16 -4.5055E-19 -2.0382E-16
  1.2207E-03 -5.2328E-17 -2.3672E-14 -5.2778E-17 -2.3876E-14
  6.1035E-03 -1.8911E-14 -8.5548E-12 -1.8963E-14 -8.5786E-12
  3.0518E-02 -1.1494E-12 -5.1997E-10 -1.1684E-12 -5.2855E-10
  1.5259E-01 -1.4120E-11 -6.3875E-09 -1.5288E-11 -6.9161E-09
  7.6294E-01 -8.9358E-11 -4.0423E-08 -1.0465E-10 -4.7339E-08
  1.0000E+00 -2.3784E-11 -1.0759E-08 -1.2843E-10 -5.8099E-08
  2.0000E+00 -1.3911E-10 -6.2929E-08 -2.6754E-10 -1.2103E-07
  3.0000E+00 -1.4507E-10 -6.5626E-08 -4.1261E-10 -1.8665E-07
  4.0000E+00 -1.4260E-10 -6.4510E-08 -5.5521E-10 -2.5116E-07
  5.0000E+00 -1.3842E-10 -6.2616E-08 -6.9363E-10 -3.1378E-07
  6.0000E+00 -1.4676E-10 -6.6393E-08 -8.4039E-10 -3.8017E-07
  7.0000E+00 -1.3001E-10 -5.8813E-08 -9.7040E-10 -4.3899E-07
  8.0000E+00 -1.5090E-10 -6.8266E-08 -1.1213E-09 -5.0725E-07
  9.0000E+00  5.3397E-09  2.4155E-06  4.2184E-09  1.9083E-06
  1.0000E+01  6.3740E-09  2.8835E-06  1.0592E-08  4.7918E-06
  1.1000E+01  6.6565E-09  3.0113E-06  1.7249E-08  7.8030E-06
  1.2000E+01  1.3291E-08  6.0125E-06  3.0540E-08  1.3816E-05
  1.3000E+01  1.8856E-08  8.5300E-06  4.9396E-08  2.2345E-05
  1.4000E+01  1.9480E-08  8.8122E-06  6.8875E-08  3.1158E-05
  1.5000E+01  2.7342E-08  1.2369E-05  9.6218E-08  4.3527E-05
  1.6000E+01  2.6200E-08  1.1852E-05  1.2242E-07  5.5379E-05
  1.7000E+01  4.3291E-08  1.9584E-05  1.6571E-07  7.4963E-05
  1.8000E+01  5.1633E-08  2.3358E-05  2.1734E-07  9.8320E-05
  1.9000E+01  5.7656E-08  2.6082E-05  2.7500E-07  1.2440E-04
  2.0000E+01  7.3254E-08  3.3138E-05  3.4825E-07  1.5754E-04
  2.1000E+01  8.1272E-08  3.6766E-05  4.2952E-07  1.9431E-04
  2.2000E+01  9.6324E-08  4.3575E-05  5.2585E-07  2.3788E-04
  2.3000E+01  9.9811E-08  4.5152E-05  6.2566E-07  2.8303E-04
  2.4000E+01  1.0296E-07  4.6576E-05  7.2862E-07  3.2961E-04
  2.5000E+01  1.3995E-07  6.3313E-05  8.6857E-07  3.9292E-04
  2.6000E+01  1.5047E-07  6.8068E-05  1.0190E-06  4.6099E-04
  2.7000E+01  1.2656E-07  5.7253E-05  1.1456E-06  5.1825E-04
  2.8000E+01  1.4809E-07  6.6991E-05  1.2937E-06  5.8524E-04
  2.9000E+01  3.0997E-07  1.4022E-04  1.6037E-06  7.2546E-04
  3.0000E+01  2.7322E-07  1.2360E-04  1.8769E-06  8.4906E-04
  3.1000E+01  3.4285E-07  1.5510E-04  2.2197E-06  1.0042E-03
  3.2000E+01  3.9524E-07  1.7880E-04  2.6150E-06  1.1830E-03
  3.3000E+01  5.8455E-07  2.6444E-04  3.1995E-06  1.4474E-03
  3.4000E+01  8.3443E-07  3.7748E-04  4.0339E-06  1.8249E-03
  3.5000E+01  9.7273E-07  4.4005E-04  5.0067E-06  2.2650E-03
  3.6000E+01  1.2325E-06  5.5755E-04  6.2391E-06  2.8225E-03
  3.7000E+01  1.7765E-06  8.0367E-04  8.0156E-06  3.6262E-03
  3.8000E+01  1.9131E-06  8.6547E-04  9.9287E-06  4.4917E-03
  3.9000E+01  3.3536E-06  1.5172E-03  1.3282E-05  6.0089E-03
  4.0000E+01  4.8730E-06  2.2046E-03  1.8155E-05  8.2137E-03
  4.1000E+01  7.9209E-06  3.5836E-03  2.6076E-05  1.1798E-02
  4.2000E+01  9.4096E-06  4.2573E-03  3.5486E-05  1.6055E-02
  4.3000E+01  1.2500E-05  5.6559E-03  4.7986E-05  2.1712E-02
  4.4000E+01  2.5583E-05  1.1577E-02  7.3569E-05  3.3292E-02
  4.5000E+01  3.3523E-05  1.5172E-02  1.0709E-04  4.8469E-02
  4.6000E+01  4.2434E-05  1.9209E-02  1.4953E-04  6.7687E-02
  4.7000E+01  4.6784E-05  2.1183E-02  1.9631E-04  8.8884E-02
  4.8000E+01  6.8474E-05  3.1013E-02  2.6478E-04  1.1992E-01
  4.9000E+01  9.3078E-05  4.2173E-02  3.5786E-04  1.6215E-01
  5.0000E+01  1.1415E-04  5.1749E-02  4.7202E-04  2.1398E-01
  5.1000E+01  1.4009E-04  6.3548E-02  6.1211E-04  2.7766E-01
  5.2000E+01  1.5949E-04  7.2399E-02  7.7160E-04  3.5025E-01
  5.3000E+01  2.1374E-04  9.7114E-02  9.8534E-04  4.4770E-01
  5.4000E+01  2.4739E-04  1.1253E-01  1.2327E-03  5.6071E-01
  5.5000E+01  2.8575E-04  1.3014E-01  1.5185E-03  6.9156E-01
  5.6000E+01  3.3146E-04  1.5118E-01  1.8499E-03  8.4374E-01
  5.7000E+01  3.7754E-04  1.7248E-01  2.2275E-03  1.0176E+00
  5.8000E+01  4.5329E-04  2.0749E-01  2.6808E-03  1.2271E+00
  5.9000E+01  5.2201E-04  2.3949E-01  3.2028E-03  1.4694E+00
  6.0000E+01  5.4113E-04  2.4885E-01  3.7439E-03  1.7217E+00
