title = "dataset feddes"
variables = "x", "y", "z", "vx", "vy", "vz"
zone t = "velocities, solution time =  4.400E+01 days        " i =   99, j =   99, k =    1,  f=point
 -0.5050505E-02  0.0000000E+00 -0.5050505E-02  0.3374714E-10  0.0000000E+00  0.2790667E-06
 -0.5050505E-02  0.0000000E+00 -0.5050505E-02  0.1011876E-09  0.0000000E+00  0.2792024E-06
 -0.5050505E-02  0.0000000E+00 -0.5050505E-02  0.1682664E-09  0.0000000E+00  0.2794734E-06
 -0.5050505E-02  0.0000000E+00 -0.5050505E-02  0.2346936E-09  0.0000000E+00  0.2798786E-06
 -0.5050505E-02  0.0000000E+00 -0.5050505E-02  0.3002214E-09  0.0000000E+00  0.2804166E-06
 -0.5050505E-02  0.0000000E+00 -0.5050505E-02  0.3646012E-09  0.0000000E+00  0.2810852E-06
 -0.5050504E-02  0.0000000E+00 -0.5050505E-02  0.4275869E-09  0.0000000E+00  0.2818818E-06
 -0.5050501E-02  0.0000000E+00 -0.5050505E-02  0.4889350E-09  0.0000000E+00  0.2828036E-06
 -0.5050495E-02  0.0000000E+00 -0.5050505E-02  0.5484064E-09  0.0000000E+00  0.2838468E-06
 -0.5050482E-02  0.0000000E+00 -0.5050505E-02  0.6057677E-09  0.0000000E+00  0.2850075E-06
 -0.5050449E-02  0.0000000E+00 -0.5050505E-02  0.6607910E-09  0.0000000E+00  0.2862812E-06
 -0.5050376E-02  0.0000000E+00 -0.5050505E-02  0.7132559E-09  0.0000000E+00  0.2876631E-06
 -0.5050299E-02  0.0000000E+00 -0.5050505E-02  0.7629494E-09  0.0000000E+00  0.2891477E-06
 -0.5050178E-02  0.0000000E+00 -0.5050505E-02  0.8096671E-09  0.0000000E+00  0.2907292E-06
 -0.5050018E-02  0.0000000E+00 -0.5050505E-02  0.8532142E-09  0.0000000E+00  0.2924015E-06
 -0.5049710E-02  0.0000000E+00 -0.5050505E-02  0.8934060E-09  0.0000000E+00  0.2941580E-06
 -0.5049253E-02  0.0000000E+00 -0.5050505E-02  0.9300686E-09  0.0000000E+00  0.2959918E-06
 -0.5048636E-02  0.0000000E+00 -0.5050505E-02  0.9630401E-09  0.0000000E+00  0.2978957E-06
 -0.5047442E-02  0.0000000E+00 -0.5050505E-02  0.9921714E-09  0.0000000E+00  0.2998620E-06
 -0.5045727E-02  0.0000000E+00 -0.5050505E-02  0.1017326E-08  0.0000000E+00  0.3018829E-06
 -0.5043261E-02  0.0000000E+00 -0.5050505E-02  0.1038384E-08  0.0000000E+00  0.3039502E-06
 -0.5038714E-02  0.0000000E+00 -0.5050505E-02  0.1055236E-08  0.0000000E+00  0.3060557E-06
 -0.5032318E-02  0.0000000E+00 -0.5050505E-02  0.1067793E-08  0.0000000E+00  0.3081908E-06
 -0.5022454E-02  0.0000000E+00 -0.5050505E-02  0.1075979E-08  0.0000000E+00  0.3103467E-06
 -0.5012589E-02  0.0000000E+00 -0.5050505E-02  0.1079737E-08  0.0000000E+00  0.3125147E-06
 -0.5002725E-02  0.0000000E+00 -0.5050505E-02  0.1079027E-08  0.0000000E+00  0.3146857E-06
 -0.4992860E-02  0.0000000E+00 -0.5050505E-02  0.1073827E-08  0.0000000E+00  0.3168508E-06
 -0.4976523E-02  0.0000000E+00 -0.5050505E-02  0.1064133E-08  0.0000000E+00  0.3190008E-06
 -0.4956794E-02  0.0000000E+00 -0.5050505E-02  0.1049960E-08  0.0000000E+00  0.3211269E-06
 -0.4937066E-02  0.0000000E+00 -0.5050505E-02  0.1031344E-08  0.0000000E+00  0.3232200E-06
 -0.4906239E-02  0.0000000E+00 -0.5050505E-02  0.1008338E-08  0.0000000E+00  0.3252713E-06
 -0.4866782E-02  0.0000000E+00 -0.5050505E-02  0.9810157E-09  0.0000000E+00  0.3272719E-06
 -0.4827325E-02  0.0000000E+00 -0.5050505E-02  0.9494709E-09  0.0000000E+00  0.3292134E-06
 -0.4769372E-02  0.0000000E+00 -0.5050505E-02  0.9138160E-09  0.0000000E+00  0.3310872E-06
 -0.4690458E-02  0.0000000E+00 -0.5050505E-02  0.8741829E-09  0.0000000E+00  0.3328854E-06
 -0.4611543E-02  0.0000000E+00 -0.5050505E-02  0.8307222E-09  0.0000000E+00  0.3345999E-06
 -0.4503035E-02  0.0000000E+00 -0.5050505E-02  0.7836030E-09  0.0000000E+00  0.3362234E-06
 -0.4345206E-02  0.0000000E+00 -0.5050505E-02  0.7330124E-09  0.0000000E+00  0.3377486E-06
 -0.4187378E-02  0.0000000E+00 -0.5050505E-02  0.6791542E-09  0.0000000E+00  0.3391688E-06
 -0.3985156E-02  0.0000000E+00 -0.5050505E-02  0.6222490E-09  0.0000000E+00  0.3404776E-06
 -0.3669499E-02  0.0000000E+00 -0.5050505E-02  0.5625322E-09  0.0000000E+00  0.3416691E-06
 -0.3353842E-02  0.0000000E+00 -0.5050505E-02  0.5002539E-09  0.0000000E+00  0.3427379E-06
 -0.2978990E-02  0.0000000E+00 -0.5050505E-02  0.4356771E-09  0.0000000E+00  0.3436791E-06
 -0.2347676E-02  0.0000000E+00 -0.5050505E-02  0.3690767E-09  0.0000000E+00  0.3444885E-06
 -0.1716362E-02  0.0000000E+00 -0.5050505E-02  0.3007379E-09  0.0000000E+00  0.3451621E-06
 -0.1025842E-02  0.0000000E+00 -0.5050505E-02  0.2309553E-09  0.0000000E+00  0.3456968E-06
  0.2367855E-03  0.0000000E+00 -0.5050505E-02  0.1600310E-09  0.0000000E+00  0.3460900E-06
  0.1499413E-02  0.0000000E+00 -0.5050505E-02  0.8827313E-10  0.0000000E+00  0.3463397E-06
  0.2762042E-02  0.0000000E+00 -0.5050505E-02  0.1599451E-10  0.0000000E+00  0.3464446E-06
 -0.5050505E-02  0.0000000E+00 -0.5050505E-02 -0.5648676E-10  0.0000000E+00  0.3464038E-06
 -0.5050505E-02  0.0000000E+00 -0.5050505E-02 -0.1288558E-09  0.0000000E+00  0.3462174E-06
 -0.5050505E-02  0.0000000E+00 -0.5050505E-02 -0.2008061E-09  0.0000000E+00  0.3458859E-06
 -0.5050505E-02  0.0000000E+00 -0.5050505E-02 -0.2720159E-09  0.0000000E+00  0.3454104E-06
 -0.5050505E-02  0.0000000E+00 -0.5050505E-02 -0.3421756E-09  0.0000000E+00  0.3447927E-06
 -0.5050505E-02  0.0000000E+00 -0.5050505E-02 -0.4109813E-09  0.0000000E+00  0.3440353E-06
 -0.5050505E-02  0.0000000E+00 -0.5050505E-02 -0.4781371E-09  0.0000000E+00  0.3431411E-06
 -0.5050504E-02  0.0000000E+00 -0.5050505E-02 -0.5433548E-09  0.0000000E+00  0.3421139E-06
 -0.5050501E-02  0.0000000E+00 -0.5050505E-02 -0.6063560E-09  0.0000000E+00  0.3409576E-06
 -0.5050495E-02  0.0000000E+00 -0.5050505E-02 -0.6668744E-09  0.0000000E+00  0.3396772E-06
 -0.5050482E-02  0.0000000E+00 -0.5050505E-02 -0.7246554E-09  0.0000000E+00  0.3382777E-06
 -0.5050449E-02  0.0000000E+00 -0.5050505E-02 -0.7794587E-09  0.0000000E+00  0.3367651E-06
 -0.5050376E-02  0.0000000E+00 -0.5050505E-02 -0.8310587E-09  0.0000000E+00  0.3351455E-06
 -0.5050299E-02  0.0000000E+00 -0.5050505E-02 -0.8792454E-09  0.0000000E+00  0.3334254E-06
 -0.5050178E-02  0.0000000E+00 -0.5050505E-02 -0.9238256E-09  0.0000000E+00  0.3316121E-06
 -0.5050018E-02  0.0000000E+00 -0.5050505E-02 -0.9646232E-09  0.0000000E+00  0.3297130E-06
 -0.5049710E-02  0.0000000E+00 -0.5050505E-02 -0.1001480E-08  0.0000000E+00  0.3277357E-06
 -0.5049253E-02  0.0000000E+00 -0.5050505E-02 -0.1034256E-08  0.0000000E+00  0.3256885E-06
 -0.5048636E-02  0.0000000E+00 -0.5050505E-02 -0.1062829E-08  0.0000000E+00  0.3235795E-06
 -0.5047442E-02  0.0000000E+00 -0.5050505E-02 -0.1087096E-08  0.0000000E+00  0.3214174E-06
 -0.5045727E-02  0.0000000E+00 -0.5050505E-02 -0.1106974E-08  0.0000000E+00  0.3192108E-06
 -0.5043261E-02  0.0000000E+00 -0.5050505E-02 -0.1122396E-08  0.0000000E+00  0.3169688E-06
 -0.5038714E-02  0.0000000E+00 -0.5050505E-02 -0.1133314E-08  0.0000000E+00  0.3147003E-06
 -0.5032318E-02  0.0000000E+00 -0.5050505E-02 -0.1139699E-08  0.0000000E+00  0.3124144E-06
 -0.5022454E-02  0.0000000E+00 -0.5050505E-02 -0.1141538E-08  0.0000000E+00  0.3101202E-06
 -0.5012589E-02  0.0000000E+00 -0.5050505E-02 -0.1138834E-08  0.0000000E+00  0.3078269E-06
 -0.5002725E-02  0.0000000E+00 -0.5050505E-02 -0.1131606E-08  0.0000000E+00  0.3055436E-06
 -0.4992860E-02  0.0000000E+00 -0.5050505E-02 -0.1119886E-08  0.0000000E+00  0.3032794E-06
 -0.4976523E-02  0.0000000E+00 -0.5050505E-02 -0.1103719E-08  0.0000000E+00  0.3010431E-06
 -0.4956794E-02  0.0000000E+00 -0.5050505E-02 -0.1083159E-08  0.0000000E+00  0.2988439E-06
 -0.4937066E-02  0.0000000E+00 -0.5050505E-02 -0.1058267E-08  0.0000000E+00  0.2966903E-06
 -0.4906239E-02  0.0000000E+00 -0.5050505E-02 -0.1029106E-08  0.0000000E+00  0.2945911E-06
 -0.4866782E-02  0.0000000E+00 -0.5050505E-02 -0.9957344E-09  0.0000000E+00  0.2925548E-06
 -0.4827325E-02  0.0000000E+00 -0.5050505E-02 -0.9581998E-09  0.0000000E+00  0.2905898E-06
 -0.4769372E-02  0.0000000E+00 -0.5050505E-02 -0.9165230E-09  0.0000000E+00  0.2887044E-06
 -0.4690458E-02  0.0000000E+00 -0.5050505E-02 -0.8706790E-09  0.0000000E+00  0.2869071E-06
 -0.4611543E-02  0.0000000E+00 -0.5050505E-02 -0.8205634E-09  0.0000000E+00  0.2852062E-06
 -0.4503035E-02  0.0000000E+00 -0.5050505E-02 -0.7659379E-09  0.0000000E+00  0.2836107E-06
 -0.4345206E-02  0.0000000E+00 -0.5050505E-02 -0.7063341E-09  0.0000000E+00  0.2821301E-06
 -0.4187378E-02  0.0000000E+00 -0.5050505E-02 -0.6408804E-09  0.0000000E+00  0.2807753E-06
 -0.3985156E-02  0.0000000E+00 -0.5050505E-02 -0.5679701E-09  0.0000000E+00  0.2795596E-06
 -0.3669499E-02  0.0000000E+00 -0.5050505E-02 -0.4845918E-09  0.0000000E+00  0.2785010E-06
 -0.3353842E-02  0.0000000E+00 -0.5050505E-02 -0.3848857E-09  0.0000000E+00  0.2776266E-06
 -0.2978990E-02  0.0000000E+00 -0.5050505E-02 -0.2567902E-09  0.0000000E+00  0.2769813E-06
 -0.2347676E-02  0.0000000E+00 -0.5050505E-02 -0.7357724E-10  0.0000000E+00  0.2766491E-06
 -0.1716362E-02  0.0000000E+00 -0.5050505E-02  0.2295273E-09  0.0000000E+00  0.2768059E-06
 -0.1025842E-02  0.0000000E+00 -0.5050505E-02  0.8262674E-09  0.0000000E+00  0.2778677E-06
  0.2367855E-03  0.0000000E+00 -0.5050505E-02  0.2234784E-08  0.0000000E+00  0.2809461E-06
  0.1499413E-02  0.0000000E+00 -0.5050505E-02  0.6167167E-08  0.0000000E+00  0.2893957E-06
  0.5287294E-02  0.0000000E+00 -0.5050505E-02  0.1021472E-06  0.0000000E+00  0.2312086E-06
 -0.5050505E-02  0.0000000E+00 -0.5050505E-02  0.1012829E-09  0.0000000E+00  0.2795257E-06
 -0.5050505E-02  0.0000000E+00 -0.5050505E-02  0.3036409E-09  0.0000000E+00  0.2796623E-06
 -0.5050505E-02  0.0000000E+00 -0.5050505E-02  0.5049135E-09  0.0000000E+00  0.2799350E-06
 -0.5050505E-02  0.0000000E+00 -0.5050505E-02  0.7042359E-09  0.0000000E+00  0.2803428E-06
 -0.5050505E-02  0.0000000E+00 -0.5050505E-02  0.9008628E-09  0.0000000E+00  0.2808841E-06
 -0.5050505E-02  0.0000000E+00 -0.5050505E-02  0.1094047E-08  0.0000000E+00  0.2815569E-06
 -0.5050504E-02  0.0000000E+00 -0.5050505E-02  0.1283049E-08  0.0000000E+00  0.2823586E-06
 -0.5050501E-02  0.0000000E+00 -0.5050505E-02  0.1467139E-08  0.0000000E+00  0.2832861E-06
 -0.5050495E-02  0.0000000E+00 -0.5050505E-02  0.1645600E-08  0.0000000E+00  0.2843359E-06
 -0.5050482E-02  0.0000000E+00 -0.5050505E-02  0.1817731E-08  0.0000000E+00  0.2855039E-06
 -0.5050449E-02  0.0000000E+00 -0.5050505E-02  0.1982848E-08  0.0000000E+00  0.2867857E-06
 -0.5050376E-02  0.0000000E+00 -0.5050505E-02  0.2140290E-08  0.0000000E+00  0.2881763E-06
 -0.5050299E-02  0.0000000E+00 -0.5050505E-02  0.2289418E-08  0.0000000E+00  0.2896703E-06
 -0.5050178E-02  0.0000000E+00 -0.5050505E-02  0.2429619E-08  0.0000000E+00  0.2912619E-06
 -0.5050018E-02  0.0000000E+00 -0.5050505E-02  0.2560308E-08  0.0000000E+00  0.2929449E-06
 -0.5049710E-02  0.0000000E+00 -0.5050505E-02  0.2680930E-08  0.0000000E+00  0.2947127E-06
 -0.5049253E-02  0.0000000E+00 -0.5050505E-02  0.2790965E-08  0.0000000E+00  0.2965582E-06
 -0.5048636E-02  0.0000000E+00 -0.5050505E-02  0.2889925E-08  0.0000000E+00  0.2984743E-06
 -0.5047442E-02  0.0000000E+00 -0.5050505E-02  0.2977363E-08  0.0000000E+00  0.3004533E-06
 -0.5045727E-02  0.0000000E+00 -0.5050505E-02  0.3052870E-08  0.0000000E+00  0.3024873E-06
 -0.5043261E-02  0.0000000E+00 -0.5050505E-02  0.3116082E-08  0.0000000E+00  0.3045681E-06
 -0.5038714E-02  0.0000000E+00 -0.5050505E-02  0.3166678E-08  0.0000000E+00  0.3066873E-06
 -0.5032318E-02  0.0000000E+00 -0.5050505E-02  0.3204384E-08  0.0000000E+00  0.3088363E-06
 -0.5022454E-02  0.0000000E+00 -0.5050505E-02  0.3228975E-08  0.0000000E+00  0.3110064E-06
 -0.5012589E-02  0.0000000E+00 -0.5050505E-02  0.3240278E-08  0.0000000E+00  0.3131886E-06
 -0.5002725E-02  0.0000000E+00 -0.5050505E-02  0.3238172E-08  0.0000000E+00  0.3153740E-06
 -0.4992860E-02  0.0000000E+00 -0.5050505E-02  0.3222591E-08  0.0000000E+00  0.3175534E-06
 -0.4976523E-02  0.0000000E+00 -0.5050505E-02  0.3193523E-08  0.0000000E+00  0.3197178E-06
 -0.4956794E-02  0.0000000E+00 -0.5050505E-02  0.3151015E-08  0.0000000E+00  0.3218581E-06
 -0.4937066E-02  0.0000000E+00 -0.5050505E-02  0.3095170E-08  0.0000000E+00  0.3239652E-06
 -0.4906239E-02  0.0000000E+00 -0.5050505E-02  0.3026151E-08  0.0000000E+00  0.3260302E-06
 -0.4866782E-02  0.0000000E+00 -0.5050505E-02  0.2944177E-08  0.0000000E+00  0.3280444E-06
 -0.4827325E-02  0.0000000E+00 -0.5050505E-02  0.2849530E-08  0.0000000E+00  0.3299990E-06
 -0.4769372E-02  0.0000000E+00 -0.5050505E-02  0.2742545E-08  0.0000000E+00  0.3318855E-06
 -0.4690458E-02  0.0000000E+00 -0.5050505E-02  0.2623620E-08  0.0000000E+00  0.3336959E-06
 -0.4611543E-02  0.0000000E+00 -0.5050505E-02  0.2493205E-08  0.0000000E+00  0.3354223E-06
 -0.4503035E-02  0.0000000E+00 -0.5050505E-02  0.2351808E-08  0.0000000E+00  0.3370569E-06
 -0.4345206E-02  0.0000000E+00 -0.5050505E-02  0.2199991E-08  0.0000000E+00  0.3385926E-06
 -0.4187378E-02  0.0000000E+00 -0.5050505E-02  0.2038366E-08  0.0000000E+00  0.3400226E-06
 -0.3985156E-02  0.0000000E+00 -0.5050505E-02  0.1867593E-08  0.0000000E+00  0.3413405E-06
 -0.3669499E-02  0.0000000E+00 -0.5050505E-02  0.1688380E-08  0.0000000E+00  0.3425403E-06
 -0.3353842E-02  0.0000000E+00 -0.5050505E-02  0.1501478E-08  0.0000000E+00  0.3436167E-06
 -0.2978990E-02  0.0000000E+00 -0.5050505E-02  0.1307675E-08  0.0000000E+00  0.3445645E-06
 -0.2347676E-02  0.0000000E+00 -0.5050505E-02  0.1107798E-08  0.0000000E+00  0.3453796E-06
 -0.1716362E-02  0.0000000E+00 -0.5050505E-02  0.9027015E-09  0.0000000E+00  0.3460581E-06
 -0.1025842E-02  0.0000000E+00 -0.5050505E-02  0.6932706E-09  0.0000000E+00  0.3465967E-06
  0.2367855E-03  0.0000000E+00 -0.5050505E-02  0.4804119E-09  0.0000000E+00  0.3469928E-06
  0.1499413E-02  0.0000000E+00 -0.5050505E-02  0.2650513E-09  0.0000000E+00  0.3472445E-06
  0.2762042E-02  0.0000000E+00 -0.5050505E-02  0.4812898E-10  0.0000000E+00  0.3473503E-06
 -0.5050505E-02  0.0000000E+00 -0.5050505E-02 -0.1694048E-09  0.0000000E+00  0.3473096E-06
 -0.5050505E-02  0.0000000E+00 -0.5050505E-02 -0.3866016E-09  0.0000000E+00  0.3471221E-06
 -0.5050505E-02  0.0000000E+00 -0.5050505E-02 -0.6025390E-09  0.0000000E+00  0.3467886E-06
 -0.5050505E-02  0.0000000E+00 -0.5050505E-02 -0.8162534E-09  0.0000000E+00  0.3463101E-06
 -0.5050505E-02  0.0000000E+00 -0.5050505E-02 -0.1026816E-08  0.0000000E+00  0.3456885E-06
 -0.5050505E-02  0.0000000E+00 -0.5050505E-02 -0.1233314E-08  0.0000000E+00  0.3449261E-06
 -0.5050505E-02  0.0000000E+00 -0.5050505E-02 -0.1434858E-08  0.0000000E+00  0.3440261E-06
 -0.5050504E-02  0.0000000E+00 -0.5050505E-02 -0.1630584E-08  0.0000000E+00  0.3429921E-06
 -0.5050501E-02  0.0000000E+00 -0.5050505E-02 -0.1819657E-08  0.0000000E+00  0.3418283E-06
 -0.5050495E-02  0.0000000E+00 -0.5050505E-02 -0.2001276E-08  0.0000000E+00  0.3405394E-06
 -0.5050482E-02  0.0000000E+00 -0.5050505E-02 -0.2174677E-08  0.0000000E+00  0.3391308E-06
 -0.5050449E-02  0.0000000E+00 -0.5050505E-02 -0.2339140E-08  0.0000000E+00  0.3376081E-06
 -0.5050376E-02  0.0000000E+00 -0.5050505E-02 -0.2493987E-08  0.0000000E+00  0.3359778E-06
 -0.5050299E-02  0.0000000E+00 -0.5050505E-02 -0.2638589E-08  0.0000000E+00  0.3342465E-06
 -0.5050178E-02  0.0000000E+00 -0.5050505E-02 -0.2772365E-08  0.0000000E+00  0.3324213E-06
 -0.5050018E-02  0.0000000E+00 -0.5050505E-02 -0.2894788E-08  0.0000000E+00  0.3305097E-06
 -0.5049710E-02  0.0000000E+00 -0.5050505E-02 -0.3005381E-08  0.0000000E+00  0.3285194E-06
 -0.5049253E-02  0.0000000E+00 -0.5050505E-02 -0.3103726E-08  0.0000000E+00  0.3264588E-06
 -0.5048636E-02  0.0000000E+00 -0.5050505E-02 -0.3189458E-08  0.0000000E+00  0.3243360E-06
 -0.5047442E-02  0.0000000E+00 -0.5050505E-02 -0.3262268E-08  0.0000000E+00  0.3221598E-06
 -0.5045727E-02  0.0000000E+00 -0.5050505E-02 -0.3321904E-08  0.0000000E+00  0.3199389E-06
 -0.5043261E-02  0.0000000E+00 -0.5050505E-02 -0.3368168E-08  0.0000000E+00  0.3176824E-06
 -0.5038714E-02  0.0000000E+00 -0.5050505E-02 -0.3400918E-08  0.0000000E+00  0.3153992E-06
 -0.5032318E-02  0.0000000E+00 -0.5050505E-02 -0.3420065E-08  0.0000000E+00  0.3130985E-06
 -0.5022454E-02  0.0000000E+00 -0.5050505E-02 -0.3425571E-08  0.0000000E+00  0.3107895E-06
 -0.5012589E-02  0.0000000E+00 -0.5050505E-02 -0.3417449E-08  0.0000000E+00  0.3084815E-06
 -0.5002725E-02  0.0000000E+00 -0.5050505E-02 -0.3395754E-08  0.0000000E+00  0.3061834E-06
 -0.4992860E-02  0.0000000E+00 -0.5050505E-02 -0.3360587E-08  0.0000000E+00  0.3039046E-06
 -0.4976523E-02  0.0000000E+00 -0.5050505E-02 -0.3312082E-08  0.0000000E+00  0.3016540E-06
 -0.4956794E-02  0.0000000E+00 -0.5050505E-02 -0.3250406E-08  0.0000000E+00  0.2994405E-06
 -0.4937066E-02  0.0000000E+00 -0.5050505E-02 -0.3175744E-08  0.0000000E+00  0.2972730E-06
 -0.4906239E-02  0.0000000E+00 -0.5050505E-02 -0.3088292E-08  0.0000000E+00  0.2951601E-06
 -0.4866782E-02  0.0000000E+00 -0.5050505E-02 -0.2988235E-08  0.0000000E+00  0.2931103E-06
 -0.4827325E-02  0.0000000E+00 -0.5050505E-02 -0.2875728E-08  0.0000000E+00  0.2911321E-06
 -0.4769372E-02  0.0000000E+00 -0.5050505E-02 -0.2750854E-08  0.0000000E+00  0.2892338E-06
 -0.4690458E-02  0.0000000E+00 -0.5050505E-02 -0.2613569E-08  0.0000000E+00  0.2874235E-06
 -0.4611543E-02  0.0000000E+00 -0.5050505E-02 -0.2463617E-08  0.0000000E+00  0.2857097E-06
 -0.4503035E-02  0.0000000E+00 -0.5050505E-02 -0.2300379E-08  0.0000000E+00  0.2841007E-06
 -0.4345206E-02  0.0000000E+00 -0.5050505E-02 -0.2122623E-08  0.0000000E+00  0.2826055E-06
 -0.4187378E-02  0.0000000E+00 -0.5050505E-02 -0.1928068E-08  0.0000000E+00  0.2812340E-06
 -0.3985156E-02  0.0000000E+00 -0.5050505E-02 -0.1712565E-08  0.0000000E+00  0.2799973E-06
 -0.3669499E-02  0.0000000E+00 -0.5050505E-02 -0.1468526E-08  0.0000000E+00  0.2789093E-06
 -0.3353842E-02  0.0000000E+00 -0.5050505E-02 -0.1181726E-08  0.0000000E+00  0.2779879E-06
 -0.2978990E-02  0.0000000E+00 -0.5050505E-02 -0.8244422E-09  0.0000000E+00  0.2772574E-06
 -0.2347676E-02  0.0000000E+00 -0.5050505E-02 -0.3398392E-09  0.0000000E+00  0.2767491E-06
 -0.1716362E-02  0.0000000E+00 -0.5050505E-02  0.3956779E-09  0.0000000E+00  0.2764925E-06
 -0.1025842E-02  0.0000000E+00 -0.5050505E-02  0.1668628E-08  0.0000000E+00  0.2764509E-06
  0.2367855E-03  0.0000000E+00 -0.5050505E-02  0.4186828E-08  0.0000000E+00  0.2762001E-06
  0.1499413E-02  0.0000000E+00 -0.5050505E-02  0.9802762E-08  0.0000000E+00  0.2734173E-06
  0.5287294E-02  0.0000000E+00 -0.5050505E-02  0.2358615E-07  0.0000000E+00  0.2568675E-06
 -0.5050505E-02  0.0000000E+00 -0.5050505E-02  0.1691028E-09  0.0000000E+00  0.2804453E-06
 -0.5050505E-02  0.0000000E+00 -0.5050505E-02  0.5068838E-09  0.0000000E+00  0.2805836E-06
 -0.5050505E-02  0.0000000E+00 -0.5050505E-02  0.8428477E-09  0.0000000E+00  0.2808597E-06
 -0.5050505E-02  0.0000000E+00 -0.5050505E-02  0.1175567E-08  0.0000000E+00  0.2812726E-06
 -0.5050505E-02  0.0000000E+00 -0.5050505E-02  0.1503794E-08  0.0000000E+00  0.2818207E-06
 -0.5050505E-02  0.0000000E+00 -0.5050505E-02  0.1826280E-08  0.0000000E+00  0.2825019E-06
 -0.5050504E-02  0.0000000E+00 -0.5050505E-02  0.2141790E-08  0.0000000E+00  0.2833136E-06
 -0.5050501E-02  0.0000000E+00 -0.5050505E-02  0.2449106E-08  0.0000000E+00  0.2842527E-06
 -0.5050495E-02  0.0000000E+00 -0.5050505E-02  0.2747030E-08  0.0000000E+00  0.2853156E-06
 -0.5050482E-02  0.0000000E+00 -0.5050505E-02  0.3034395E-08  0.0000000E+00  0.2864983E-06
 -0.5050449E-02  0.0000000E+00 -0.5050505E-02  0.3310058E-08  0.0000000E+00  0.2877963E-06
 -0.5050376E-02  0.0000000E+00 -0.5050505E-02  0.3572916E-08  0.0000000E+00  0.2892044E-06
 -0.5050299E-02  0.0000000E+00 -0.5050505E-02  0.3821902E-08  0.0000000E+00  0.2907173E-06
 -0.5050178E-02  0.0000000E+00 -0.5050505E-02  0.4055994E-08  0.0000000E+00  0.2923290E-06
 -0.5050018E-02  0.0000000E+00 -0.5050505E-02  0.4274213E-08  0.0000000E+00  0.2940334E-06
 -0.5049710E-02  0.0000000E+00 -0.5050505E-02  0.4475634E-08  0.0000000E+00  0.2958236E-06
 -0.5049253E-02  0.0000000E+00 -0.5050505E-02  0.4659387E-08  0.0000000E+00  0.2976928E-06
 -0.5048636E-02  0.0000000E+00 -0.5050505E-02  0.4824658E-08  0.0000000E+00  0.2996334E-06
 -0.5047442E-02  0.0000000E+00 -0.5050505E-02  0.4970700E-08  0.0000000E+00  0.3016378E-06
 -0.5045727E-02  0.0000000E+00 -0.5050505E-02  0.5096830E-08  0.0000000E+00  0.3036980E-06
 -0.5043261E-02  0.0000000E+00 -0.5050505E-02  0.5202438E-08  0.0000000E+00  0.3058057E-06
 -0.5038714E-02  0.0000000E+00 -0.5050505E-02  0.5286986E-08  0.0000000E+00  0.3079524E-06
 -0.5032318E-02  0.0000000E+00 -0.5050505E-02  0.5350018E-08  0.0000000E+00  0.3101294E-06
 -0.5022454E-02  0.0000000E+00 -0.5050505E-02  0.5391156E-08  0.0000000E+00  0.3123278E-06
 -0.5012589E-02  0.0000000E+00 -0.5050505E-02  0.5410111E-08  0.0000000E+00  0.3145386E-06
 -0.5002725E-02  0.0000000E+00 -0.5050505E-02  0.5406679E-08  0.0000000E+00  0.3167527E-06
 -0.4992860E-02  0.0000000E+00 -0.5050505E-02  0.5380747E-08  0.0000000E+00  0.3189608E-06
 -0.4976523E-02  0.0000000E+00 -0.5050505E-02  0.5332297E-08  0.0000000E+00  0.3211539E-06
 -0.4956794E-02  0.0000000E+00 -0.5050505E-02  0.5261403E-08  0.0000000E+00  0.3233226E-06
 -0.4937066E-02  0.0000000E+00 -0.5050505E-02  0.5168238E-08  0.0000000E+00  0.3254578E-06
 -0.4906239E-02  0.0000000E+00 -0.5050505E-02  0.5053072E-08  0.0000000E+00  0.3275505E-06
 -0.4866782E-02  0.0000000E+00 -0.5050505E-02  0.4916271E-08  0.0000000E+00  0.3295917E-06
 -0.4827325E-02  0.0000000E+00 -0.5050505E-02  0.4758302E-08  0.0000000E+00  0.3315726E-06
 -0.4769372E-02  0.0000000E+00 -0.5050505E-02  0.4579727E-08  0.0000000E+00  0.3334848E-06
 -0.4690458E-02  0.0000000E+00 -0.5050505E-02  0.4381207E-08  0.0000000E+00  0.3353197E-06
 -0.4611543E-02  0.0000000E+00 -0.5050505E-02  0.4163495E-08  0.0000000E+00  0.3370696E-06
 -0.4503035E-02  0.0000000E+00 -0.5050505E-02  0.3927438E-08  0.0000000E+00  0.3387265E-06
 -0.4345206E-02  0.0000000E+00 -0.5050505E-02  0.3673974E-08  0.0000000E+00  0.3402834E-06
 -0.4187378E-02  0.0000000E+00 -0.5050505E-02  0.3404123E-08  0.0000000E+00  0.3417331E-06
 -0.3985156E-02  0.0000000E+00 -0.5050505E-02  0.3118990E-08  0.0000000E+00  0.3430692E-06
 -0.3669499E-02  0.0000000E+00 -0.5050505E-02  0.2819757E-08  0.0000000E+00  0.3442857E-06
 -0.3353842E-02  0.0000000E+00 -0.5050505E-02  0.2507676E-08  0.0000000E+00  0.3453770E-06
 -0.2978990E-02  0.0000000E+00 -0.5050505E-02  0.2184067E-08  0.0000000E+00  0.3463382E-06
 -0.2347676E-02  0.0000000E+00 -0.5050505E-02  0.1850307E-08  0.0000000E+00  0.3471649E-06
 -0.1716362E-02  0.0000000E+00 -0.5050505E-02  0.1507827E-08  0.0000000E+00  0.3478530E-06
 -0.1025842E-02  0.0000000E+00 -0.5050505E-02  0.1158105E-08  0.0000000E+00  0.3483994E-06
  0.2367855E-03  0.0000000E+00 -0.5050505E-02  0.8026545E-09  0.0000000E+00  0.3488014E-06
  0.1499413E-02  0.0000000E+00 -0.5050505E-02  0.4430240E-09  0.0000000E+00  0.3490570E-06
  0.2762042E-02  0.0000000E+00 -0.5050505E-02  0.8078749E-10  0.0000000E+00  0.3491648E-06
 -0.5050505E-02  0.0000000E+00 -0.5050505E-02 -0.2824758E-09  0.0000000E+00  0.3491240E-06
 -0.5050505E-02  0.0000000E+00 -0.5050505E-02 -0.6451767E-09  0.0000000E+00  0.3489345E-06
 -0.5050505E-02  0.0000000E+00 -0.5050505E-02 -0.1005768E-08  0.0000000E+00  0.3485969E-06
 -0.5050505E-02  0.0000000E+00 -0.5050505E-02 -0.1362646E-08  0.0000000E+00  0.3481124E-06
 -0.5050505E-02  0.0000000E+00 -0.5050505E-02 -0.1714257E-08  0.0000000E+00  0.3474829E-06
 -0.5050505E-02  0.0000000E+00 -0.5050505E-02 -0.2059078E-08  0.0000000E+00  0.3467107E-06
 -0.5050505E-02  0.0000000E+00 -0.5050505E-02 -0.2395622E-08  0.0000000E+00  0.3457990E-06
 -0.5050504E-02  0.0000000E+00 -0.5050505E-02 -0.2722445E-08  0.0000000E+00  0.3447515E-06
 -0.5050501E-02  0.0000000E+00 -0.5050505E-02 -0.3038150E-08  0.0000000E+00  0.3435724E-06
 -0.5050495E-02  0.0000000E+00 -0.5050505E-02 -0.3341403E-08  0.0000000E+00  0.3422666E-06
 -0.5050482E-02  0.0000000E+00 -0.5050505E-02 -0.3630927E-08  0.0000000E+00  0.3408395E-06
 -0.5050449E-02  0.0000000E+00 -0.5050505E-02 -0.3905518E-08  0.0000000E+00  0.3392969E-06
 -0.5050376E-02  0.0000000E+00 -0.5050505E-02 -0.4164046E-08  0.0000000E+00  0.3376452E-06
 -0.5050299E-02  0.0000000E+00 -0.5050505E-02 -0.4405458E-08  0.0000000E+00  0.3358912E-06
 -0.5050178E-02  0.0000000E+00 -0.5050505E-02 -0.4628788E-08  0.0000000E+00  0.3340421E-06
 -0.5050018E-02  0.0000000E+00 -0.5050505E-02 -0.4833154E-08  0.0000000E+00  0.3321055E-06
 -0.5049710E-02  0.0000000E+00 -0.5050505E-02 -0.5017764E-08  0.0000000E+00  0.3300893E-06
 -0.5049253E-02  0.0000000E+00 -0.5050505E-02 -0.5181917E-08  0.0000000E+00  0.3280018E-06
 -0.5048636E-02  0.0000000E+00 -0.5050505E-02 -0.5325006E-08  0.0000000E+00  0.3258515E-06
 -0.5047442E-02  0.0000000E+00 -0.5050505E-02 -0.5446518E-08  0.0000000E+00  0.3236471E-06
 -0.5045727E-02  0.0000000E+00 -0.5050505E-02 -0.5546031E-08  0.0000000E+00  0.3213974E-06
 -0.5043261E-02  0.0000000E+00 -0.5050505E-02 -0.5623219E-08  0.0000000E+00  0.3191117E-06
 -0.5038714E-02  0.0000000E+00 -0.5050505E-02 -0.5677847E-08  0.0000000E+00  0.3167991E-06
 -0.5032318E-02  0.0000000E+00 -0.5050505E-02 -0.5709767E-08  0.0000000E+00  0.3144689E-06
 -0.5022454E-02  0.0000000E+00 -0.5050505E-02 -0.5718921E-08  0.0000000E+00  0.3121302E-06
 -0.5012589E-02  0.0000000E+00 -0.5050505E-02 -0.5705331E-08  0.0000000E+00  0.3097925E-06
 -0.5002725E-02  0.0000000E+00 -0.5050505E-02 -0.5669096E-08  0.0000000E+00  0.3074651E-06
 -0.4992860E-02  0.0000000E+00 -0.5050505E-02 -0.5610388E-08  0.0000000E+00  0.3051571E-06
 -0.4976523E-02  0.0000000E+00 -0.5050505E-02 -0.5529440E-08  0.0000000E+00  0.3028776E-06
 -0.4956794E-02  0.0000000E+00 -0.5050505E-02 -0.5426537E-08  0.0000000E+00  0.3006357E-06
 -0.4937066E-02  0.0000000E+00 -0.5050505E-02 -0.5302004E-08  0.0000000E+00  0.2984403E-06
 -0.4906239E-02  0.0000000E+00 -0.5050505E-02 -0.5156183E-08  0.0000000E+00  0.2963000E-06
 -0.4866782E-02  0.0000000E+00 -0.5050505E-02 -0.4989413E-08  0.0000000E+00  0.2942234E-06
 -0.4827325E-02  0.0000000E+00 -0.5050505E-02 -0.4801990E-08  0.0000000E+00  0.2922188E-06
 -0.4769372E-02  0.0000000E+00 -0.5050505E-02 -0.4594115E-08  0.0000000E+00  0.2902946E-06
 -0.4690458E-02  0.0000000E+00 -0.5050505E-02 -0.4365819E-08  0.0000000E+00  0.2884587E-06
 -0.4611543E-02  0.0000000E+00 -0.5050505E-02 -0.4116835E-08  0.0000000E+00  0.2867192E-06
 -0.4503035E-02  0.0000000E+00 -0.5050505E-02 -0.3846414E-08  0.0000000E+00  0.2850839E-06
 -0.4345206E-02  0.0000000E+00 -0.5050505E-02 -0.3553002E-08  0.0000000E+00  0.2835609E-06
 -0.4187378E-02  0.0000000E+00 -0.5050505E-02 -0.3233720E-08  0.0000000E+00  0.2821581E-06
 -0.3985156E-02  0.0000000E+00 -0.5050505E-02 -0.2883446E-08  0.0000000E+00  0.2808837E-06
 -0.3669499E-02  0.0000000E+00 -0.5050505E-02 -0.2493207E-08  0.0000000E+00  0.2797457E-06
 -0.3353842E-02  0.0000000E+00 -0.5050505E-02 -0.2047256E-08  0.0000000E+00  0.2787512E-06
 -0.2978990E-02  0.0000000E+00 -0.5050505E-02 -0.1517756E-08  0.0000000E+00  0.2779028E-06
 -0.2347676E-02  0.0000000E+00 -0.5050505E-02 -0.8552640E-09  0.0000000E+00  0.2771889E-06
 -0.1716362E-02  0.0000000E+00 -0.5050505E-02  0.2698835E-10  0.0000000E+00  0.2765568E-06
 -0.1025842E-02  0.0000000E+00 -0.5050505E-02  0.1271290E-08  0.0000000E+00  0.2758396E-06
  0.2367855E-03  0.0000000E+00 -0.5050505E-02  0.3056344E-08  0.0000000E+00  0.2745871E-06
  0.1499413E-02  0.0000000E+00 -0.5050505E-02  0.5317212E-08  0.0000000E+00  0.2718011E-06
  0.5287294E-02  0.0000000E+00 -0.5050505E-02  0.6129869E-08  0.0000000E+00  0.2664735E-06
 -0.5050505E-02  0.0000000E+00 -0.5050505E-02  0.2376155E-09  0.0000000E+00  0.2818272E-06
 -0.5050505E-02  0.0000000E+00 -0.5050505E-02  0.7121833E-09  0.0000000E+00  0.2819681E-06
 -0.5050505E-02  0.0000000E+00 -0.5050505E-02  0.1184188E-08  0.0000000E+00  0.2822493E-06
 -0.5050505E-02  0.0000000E+00 -0.5050505E-02  0.1651647E-08  0.0000000E+00  0.2826698E-06
 -0.5050505E-02  0.0000000E+00 -0.5050505E-02  0.2112805E-08  0.0000000E+00  0.2832281E-06
 -0.5050505E-02  0.0000000E+00 -0.5050505E-02  0.2565908E-08  0.0000000E+00  0.2839219E-06
 -0.5050504E-02  0.0000000E+00 -0.5050505E-02  0.3009219E-08  0.0000000E+00  0.2847487E-06
 -0.5050501E-02  0.0000000E+00 -0.5050505E-02  0.3441029E-08  0.0000000E+00  0.2857052E-06
 -0.5050495E-02  0.0000000E+00 -0.5050505E-02  0.3859658E-08  0.0000000E+00  0.2867880E-06
 -0.5050482E-02  0.0000000E+00 -0.5050505E-02  0.4263462E-08  0.0000000E+00  0.2879928E-06
 -0.5050449E-02  0.0000000E+00 -0.5050505E-02  0.4650840E-08  0.0000000E+00  0.2893150E-06
 -0.5050376E-02  0.0000000E+00 -0.5050505E-02  0.5020242E-08  0.0000000E+00  0.2907495E-06
 -0.5050299E-02  0.0000000E+00 -0.5050505E-02  0.5370168E-08  0.0000000E+00  0.2922907E-06
 -0.5050178E-02  0.0000000E+00 -0.5050505E-02  0.5699181E-08  0.0000000E+00  0.2939328E-06
 -0.5050018E-02  0.0000000E+00 -0.5050505E-02  0.6005908E-08  0.0000000E+00  0.2956693E-06
 -0.5049710E-02  0.0000000E+00 -0.5050505E-02  0.6289047E-08  0.0000000E+00  0.2974935E-06
 -0.5049253E-02  0.0000000E+00 -0.5050505E-02  0.6547373E-08  0.0000000E+00  0.2993981E-06
 -0.5048636E-02  0.0000000E+00 -0.5050505E-02  0.6779744E-08  0.0000000E+00  0.3013757E-06
 -0.5047442E-02  0.0000000E+00 -0.5050505E-02  0.6985106E-08  0.0000000E+00  0.3034183E-06
 -0.5045727E-02  0.0000000E+00 -0.5050505E-02  0.7162499E-08  0.0000000E+00  0.3055180E-06
 -0.5043261E-02  0.0000000E+00 -0.5050505E-02  0.7311063E-08  0.0000000E+00  0.3076661E-06
 -0.5038714E-02  0.0000000E+00 -0.5050505E-02  0.7430043E-08  0.0000000E+00  0.3098542E-06
 -0.5032318E-02  0.0000000E+00 -0.5050505E-02  0.7518791E-08  0.0000000E+00  0.3120733E-06
 -0.5022454E-02  0.0000000E+00 -0.5050505E-02  0.7576778E-08  0.0000000E+00  0.3143144E-06
 -0.5012589E-02  0.0000000E+00 -0.5050505E-02  0.7603592E-08  0.0000000E+00  0.3165683E-06
 -0.5002725E-02  0.0000000E+00 -0.5050505E-02  0.7598944E-08  0.0000000E+00  0.3188256E-06
 -0.4992860E-02  0.0000000E+00 -0.5050505E-02  0.7562676E-08  0.0000000E+00  0.3210771E-06
 -0.4976523E-02  0.0000000E+00 -0.5050505E-02  0.7494755E-08  0.0000000E+00  0.3233133E-06
 -0.4956794E-02  0.0000000E+00 -0.5050505E-02  0.7395287E-08  0.0000000E+00  0.3255249E-06
 -0.4937066E-02  0.0000000E+00 -0.5050505E-02  0.7264510E-08  0.0000000E+00  0.3277024E-06