title = "dataset feddes"
variables = "x", "y", "z", "vx", "vy", "vz"
zone t = "velocities, solution time =  1.900E+01 days        " i =   99, j =   99, k =    1,  f=point
 -0.5050505E-02  0.0000000E+00 -0.5050505E-02  0.5597131E-13  0.0000000E+00  0.7785945E-09
 -0.5050505E-02  0.0000000E+00 -0.5050505E-02  0.3205398E-12  0.0000000E+00  0.7789732E-09
 -0.5050505E-02  0.0000000E+00 -0.5050505E-02  0.6283782E-12  0.0000000E+00  0.7799274E-09
 -0.5050505E-02  0.0000000E+00 -0.5050505E-02  0.9143680E-12  0.0000000E+00  0.7814789E-09
 -0.5050505E-02  0.0000000E+00 -0.5050505E-02  0.1186517E-11  0.0000000E+00  0.7835917E-09
 -0.5050505E-02  0.0000000E+00 -0.5050505E-02  0.1448693E-11  0.0000000E+00  0.7862418E-09
 -0.5050504E-02  0.0000000E+00 -0.5050505E-02  0.1702915E-11  0.0000000E+00  0.7894113E-09
 -0.5050501E-02  0.0000000E+00 -0.5050505E-02  0.1949136E-11  0.0000000E+00  0.7930840E-09
 -0.5050495E-02  0.0000000E+00 -0.5050505E-02  0.2187072E-11  0.0000000E+00  0.7972436E-09
 -0.5050482E-02  0.0000000E+00 -0.5050505E-02  0.2416244E-11  0.0000000E+00  0.8018730E-09
 -0.5050449E-02  0.0000000E+00 -0.5050505E-02  0.2635653E-11  0.0000000E+00  0.8069535E-09
 -0.5050376E-02  0.0000000E+00 -0.5050505E-02  0.2844505E-11  0.0000000E+00  0.8124647E-09
 -0.5050299E-02  0.0000000E+00 -0.5050505E-02  0.3042125E-11  0.0000000E+00  0.8183846E-09
 -0.5050178E-02  0.0000000E+00 -0.5050505E-02  0.3227606E-11  0.0000000E+00  0.8246899E-09
 -0.5050018E-02  0.0000000E+00 -0.5050505E-02  0.3400214E-11  0.0000000E+00  0.8313552E-09
 -0.5049710E-02  0.0000000E+00 -0.5050505E-02  0.3559235E-11  0.0000000E+00  0.8383541E-09
 -0.5049253E-02  0.0000000E+00 -0.5050505E-02  0.3704056E-11  0.0000000E+00  0.8456585E-09
 -0.5048636E-02  0.0000000E+00 -0.5050505E-02  0.3833993E-11  0.0000000E+00  0.8532392E-09
 -0.5047442E-02  0.0000000E+00 -0.5050505E-02  0.3948508E-11  0.0000000E+00  0.8610657E-09
 -0.5045727E-02  0.0000000E+00 -0.5050505E-02  0.4047089E-11  0.0000000E+00  0.8691066E-09
 -0.5043261E-02  0.0000000E+00 -0.5050505E-02  0.4129288E-11  0.0000000E+00  0.8773293E-09
 -0.5038714E-02  0.0000000E+00 -0.5050505E-02  0.4194707E-11  0.0000000E+00  0.8857004E-09
 -0.5032318E-02  0.0000000E+00 -0.5050505E-02  0.4243030E-11  0.0000000E+00  0.8941859E-09
 -0.5022454E-02  0.0000000E+00 -0.5050505E-02  0.4273974E-11  0.0000000E+00  0.9027511E-09
 -0.5012589E-02  0.0000000E+00 -0.5050505E-02  0.4287402E-11  0.0000000E+00  0.9113610E-09
 -0.5002725E-02  0.0000000E+00 -0.5050505E-02  0.4283151E-11  0.0000000E+00  0.9199800E-09
 -0.4992860E-02  0.0000000E+00 -0.5050505E-02  0.4261167E-11  0.0000000E+00  0.9285727E-09
 -0.4976523E-02  0.0000000E+00 -0.5050505E-02  0.4221496E-11  0.0000000E+00  0.9371034E-09
 -0.4956794E-02  0.0000000E+00 -0.5050505E-02  0.4164228E-11  0.0000000E+00  0.9455366E-09
 -0.4937066E-02  0.0000000E+00 -0.5050505E-02  0.4089520E-11  0.0000000E+00  0.9538371E-09
 -0.4906239E-02  0.0000000E+00 -0.5050505E-02  0.3997641E-11  0.0000000E+00  0.9619700E-09
 -0.4866782E-02  0.0000000E+00 -0.5050505E-02  0.3888923E-11  0.0000000E+00  0.9699012E-09
 -0.4827325E-02  0.0000000E+00 -0.5050505E-02  0.3763709E-11  0.0000000E+00  0.9775972E-09
 -0.4769372E-02  0.0000000E+00 -0.5050505E-02  0.3622510E-11  0.0000000E+00  0.9850252E-09
 -0.4690458E-02  0.0000000E+00 -0.5050505E-02  0.3465850E-11  0.0000000E+00  0.9921537E-09
 -0.4611543E-02  0.0000000E+00 -0.5050505E-02  0.3294345E-11  0.0000000E+00  0.9989522E-09
 -0.4503035E-02  0.0000000E+00 -0.5050505E-02  0.3108616E-11  0.0000000E+00  0.1005391E-08
 -0.4345206E-02  0.0000000E+00 -0.5050505E-02  0.2909436E-11  0.0000000E+00  0.1011443E-08
 -0.4187378E-02  0.0000000E+00 -0.5050505E-02  0.2697577E-11  0.0000000E+00  0.1017082E-08
 -0.3985156E-02  0.0000000E+00 -0.5050505E-02  0.2473819E-11  0.0000000E+00  0.1022283E-08
 -0.3669499E-02  0.0000000E+00 -0.5050505E-02  0.2238995E-11  0.0000000E+00  0.1027022E-08
 -0.3353842E-02  0.0000000E+00 -0.5050505E-02  0.1993951E-11  0.0000000E+00  0.1031279E-08
 -0.2978990E-02  0.0000000E+00 -0.5050505E-02  0.1739377E-11  0.0000000E+00  0.1035034E-08
 -0.2347676E-02  0.0000000E+00 -0.5050505E-02  0.1476053E-11  0.0000000E+00  0.1038267E-08
 -0.1716362E-02  0.0000000E+00 -0.5050505E-02  0.1204617E-11  0.0000000E+00  0.1040963E-08
 -0.1025842E-02  0.0000000E+00 -0.5050505E-02  0.9259072E-12  0.0000000E+00  0.1043106E-08
  0.2367855E-03  0.0000000E+00 -0.5050505E-02  0.6413120E-12  0.0000000E+00  0.1044682E-08
  0.1499413E-02  0.0000000E+00 -0.5050505E-02  0.3532228E-12  0.0000000E+00  0.1045682E-08
  0.2762042E-02  0.0000000E+00 -0.5050505E-02  0.6476626E-13  0.0000000E+00  0.1046102E-08
 -0.5050505E-02  0.0000000E+00 -0.5050505E-02 -0.1810501E-12  0.0000000E+00  0.1045986E-08
 -0.5050505E-02  0.0000000E+00 -0.5050505E-02 -0.4392454E-12  0.0000000E+00  0.1045362E-08
 -0.5050505E-02  0.0000000E+00 -0.5050505E-02 -0.7397510E-12  0.0000000E+00  0.1044176E-08
 -0.5050505E-02  0.0000000E+00 -0.5050505E-02 -0.1034041E-11  0.0000000E+00  0.1042392E-08
 -0.5050505E-02  0.0000000E+00 -0.5050505E-02 -0.1317391E-11  0.0000000E+00  0.1040027E-08
 -0.5050505E-02  0.0000000E+00 -0.5050505E-02 -0.1591422E-11  0.0000000E+00  0.1037102E-08
 -0.5050505E-02  0.0000000E+00 -0.5050505E-02 -0.1857198E-11  0.0000000E+00  0.1033634E-08
 -0.5050504E-02  0.0000000E+00 -0.5050505E-02 -0.2114763E-11  0.0000000E+00  0.1029640E-08
 -0.5050501E-02  0.0000000E+00 -0.5050505E-02 -0.2363609E-11  0.0000000E+00  0.1025136E-08
 -0.5050495E-02  0.0000000E+00 -0.5050505E-02 -0.2602872E-11  0.0000000E+00  0.1020141E-08
 -0.5050482E-02  0.0000000E+00 -0.5050505E-02 -0.2831668E-11  0.0000000E+00  0.1014676E-08
 -0.5050449E-02  0.0000000E+00 -0.5050505E-02 -0.3049090E-11  0.0000000E+00  0.1008762E-08
 -0.5050376E-02  0.0000000E+00 -0.5050505E-02 -0.3254216E-11  0.0000000E+00  0.1002423E-08
 -0.5050299E-02  0.0000000E+00 -0.5050505E-02 -0.3446296E-11  0.0000000E+00  0.9956845E-09
 -0.5050178E-02  0.0000000E+00 -0.5050505E-02 -0.3624459E-11  0.0000000E+00  0.9885737E-09
 -0.5050018E-02  0.0000000E+00 -0.5050505E-02 -0.3788069E-11  0.0000000E+00  0.9811192E-09
 -0.5049710E-02  0.0000000E+00 -0.5050505E-02 -0.3936466E-11  0.0000000E+00  0.9733509E-09
 -0.5049253E-02  0.0000000E+00 -0.5050505E-02 -0.4069028E-11  0.0000000E+00  0.9653001E-09
 -0.5048636E-02  0.0000000E+00 -0.5050505E-02 -0.4185297E-11  0.0000000E+00  0.9569991E-09
 -0.5047442E-02  0.0000000E+00 -0.5050505E-02 -0.4284786E-11  0.0000000E+00  0.9484810E-09
 -0.5045727E-02  0.0000000E+00 -0.5050505E-02 -0.4367194E-11  0.0000000E+00  0.9397801E-09
 -0.5043261E-02  0.0000000E+00 -0.5050505E-02 -0.4432148E-11  0.0000000E+00  0.9309309E-09
 -0.5038714E-02  0.0000000E+00 -0.5050505E-02 -0.4479474E-11  0.0000000E+00  0.9219688E-09
 -0.5032318E-02  0.0000000E+00 -0.5050505E-02 -0.4508978E-11  0.0000000E+00  0.9129295E-09
 -0.5022454E-02  0.0000000E+00 -0.5050505E-02 -0.4520607E-11  0.0000000E+00  0.9038488E-09
 -0.5012589E-02  0.0000000E+00 -0.5050505E-02 -0.4514309E-11  0.0000000E+00  0.8947627E-09
 -0.5002725E-02  0.0000000E+00 -0.5050505E-02 -0.4490159E-11  0.0000000E+00  0.8857073E-09
 -0.4992860E-02  0.0000000E+00 -0.5050505E-02 -0.4448201E-11  0.0000000E+00  0.8767183E-09
 -0.4976523E-02  0.0000000E+00 -0.5050505E-02 -0.4388661E-11  0.0000000E+00  0.8678315E-09
 -0.4956794E-02  0.0000000E+00 -0.5050505E-02 -0.4311718E-11  0.0000000E+00  0.8590818E-09
 -0.4937066E-02  0.0000000E+00 -0.5050505E-02 -0.4217597E-11  0.0000000E+00  0.8505042E-09
 -0.4906239E-02  0.0000000E+00 -0.5050505E-02 -0.4106630E-11  0.0000000E+00  0.8421329E-09
 -0.4866782E-02  0.0000000E+00 -0.5050505E-02 -0.3979046E-11  0.0000000E+00  0.8340014E-09
 -0.4827325E-02  0.0000000E+00 -0.5050505E-02 -0.3835141E-11  0.0000000E+00  0.8261430E-09
 -0.4769372E-02  0.0000000E+00 -0.5050505E-02 -0.3675144E-11  0.0000000E+00  0.8185902E-09
 -0.4690458E-02  0.0000000E+00 -0.5050505E-02 -0.3499163E-11  0.0000000E+00  0.8113753E-09
 -0.4611543E-02  0.0000000E+00 -0.5050505E-02 -0.3307136E-11  0.0000000E+00  0.8045304E-09
 -0.4503035E-02  0.0000000E+00 -0.5050505E-02 -0.3098576E-11  0.0000000E+00  0.7980885E-09
 -0.4345206E-02  0.0000000E+00 -0.5050505E-02 -0.2872412E-11  0.0000000E+00  0.7920837E-09
 -0.4187378E-02  0.0000000E+00 -0.5050505E-02 -0.2626438E-11  0.0000000E+00  0.7865537E-09
 -0.3985156E-02  0.0000000E+00 -0.5050505E-02 -0.2356343E-11  0.0000000E+00  0.7815427E-09
 -0.3669499E-02  0.0000000E+00 -0.5050505E-02 -0.2053806E-11  0.0000000E+00  0.7771076E-09
 -0.3353842E-02  0.0000000E+00 -0.5050505E-02 -0.1702690E-11  0.0000000E+00  0.7733298E-09
 -0.2978990E-02  0.0000000E+00 -0.5050505E-02 -0.1269713E-11  0.0000000E+00  0.7703406E-09
 -0.2347676E-02  0.0000000E+00 -0.5050505E-02 -0.6813954E-12  0.0000000E+00  0.7683784E-09
 -0.1716362E-02  0.0000000E+00 -0.5050505E-02  0.2416476E-12  0.0000000E+00  0.7679362E-09
 -0.1025842E-02  0.0000000E+00 -0.5050505E-02  0.1946070E-11  0.0000000E+00  0.7701363E-09
  0.2367855E-03  0.0000000E+00 -0.5050505E-02  0.5902293E-11  0.0000000E+00  0.7780291E-09
  0.1499413E-02  0.0000000E+00 -0.5050505E-02  0.1683319E-10  0.0000000E+00  0.8008933E-09
  0.5287294E-02  0.0000000E+00 -0.5050505E-02  0.2822595E-09  0.0000000E+00  0.6396366E-09
 -0.5050505E-02  0.0000000E+00 -0.5050505E-02  0.2020733E-12  0.0000000E+00  0.7807461E-09
 -0.5050505E-02  0.0000000E+00 -0.5050505E-02  0.9841197E-12  0.0000000E+00  0.7811838E-09
 -0.5050505E-02  0.0000000E+00 -0.5050505E-02  0.1894222E-11  0.0000000E+00  0.7821752E-09
 -0.5050505E-02  0.0000000E+00 -0.5050505E-02  0.2746257E-11  0.0000000E+00  0.7837477E-09
 -0.5050505E-02  0.0000000E+00 -0.5050505E-02  0.3561091E-11  0.0000000E+00  0.7858771E-09
 -0.5050505E-02  0.0000000E+00 -0.5050505E-02  0.4347351E-11  0.0000000E+00  0.7885449E-09
 -0.5050504E-02  0.0000000E+00 -0.5050505E-02  0.5109918E-11  0.0000000E+00  0.7917346E-09
 -0.5050501E-02  0.0000000E+00 -0.5050505E-02  0.5848797E-11  0.0000000E+00  0.7954305E-09
 -0.5050495E-02  0.0000000E+00 -0.5050505E-02  0.6562742E-11  0.0000000E+00  0.7996164E-09
 -0.5050482E-02  0.0000000E+00 -0.5050505E-02  0.7250335E-11  0.0000000E+00  0.8042748E-09
 -0.5050449E-02  0.0000000E+00 -0.5050505E-02  0.7908684E-11  0.0000000E+00  0.8093872E-09
 -0.5050376E-02  0.0000000E+00 -0.5050505E-02  0.8535450E-11  0.0000000E+00  0.8149330E-09
 -0.5050299E-02  0.0000000E+00 -0.5050505E-02  0.9128394E-11  0.0000000E+00  0.8208901E-09
 -0.5050178E-02  0.0000000E+00 -0.5050505E-02  0.9684976E-11  0.0000000E+00  0.8272349E-09
 -0.5050018E-02  0.0000000E+00 -0.5050505E-02  0.1020294E-10  0.0000000E+00  0.8339421E-09
 -0.5049710E-02  0.0000000E+00 -0.5050505E-02  0.1068018E-10  0.0000000E+00  0.8409850E-09
 -0.5049253E-02  0.0000000E+00 -0.5050505E-02  0.1111475E-10  0.0000000E+00  0.8483354E-09
 -0.5048636E-02  0.0000000E+00 -0.5050505E-02  0.1150469E-10  0.0000000E+00  0.8559640E-09
 -0.5047442E-02  0.0000000E+00 -0.5050505E-02  0.1184838E-10  0.0000000E+00  0.8638400E-09
 -0.5045727E-02  0.0000000E+00 -0.5050505E-02  0.1214424E-10  0.0000000E+00  0.8719319E-09
 -0.5043261E-02  0.0000000E+00 -0.5050505E-02  0.1239094E-10  0.0000000E+00  0.8802067E-09
 -0.5038714E-02  0.0000000E+00 -0.5050505E-02  0.1258733E-10  0.0000000E+00  0.8886311E-09
 -0.5032318E-02  0.0000000E+00 -0.5050505E-02  0.1273237E-10  0.0000000E+00  0.8971707E-09
 -0.5022454E-02  0.0000000E+00 -0.5050505E-02  0.1282534E-10  0.0000000E+00  0.9057907E-09
 -0.5012589E-02  0.0000000E+00 -0.5050505E-02  0.1286567E-10  0.0000000E+00  0.9144558E-09
 -0.5002725E-02  0.0000000E+00 -0.5050505E-02  0.1285297E-10  0.0000000E+00  0.9231302E-09
 -0.4992860E-02  0.0000000E+00 -0.5050505E-02  0.1278708E-10  0.0000000E+00  0.9317782E-09
 -0.4976523E-02  0.0000000E+00 -0.5050505E-02  0.1266811E-10  0.0000000E+00  0.9403640E-09
 -0.4956794E-02  0.0000000E+00 -0.5050505E-02  0.1249630E-10  0.0000000E+00  0.9488517E-09
 -0.4937066E-02  0.0000000E+00 -0.5050505E-02  0.1227221E-10  0.0000000E+00  0.9572061E-09
 -0.4906239E-02  0.0000000E+00 -0.5050505E-02  0.1199656E-10  0.0000000E+00  0.9653919E-09
 -0.4866782E-02  0.0000000E+00 -0.5050505E-02  0.1167035E-10  0.0000000E+00  0.9733749E-09
 -0.4827325E-02  0.0000000E+00 -0.5050505E-02  0.1129468E-10  0.0000000E+00  0.9811212E-09
 -0.4769372E-02  0.0000000E+00 -0.5050505E-02  0.1087101E-10  0.0000000E+00  0.9885979E-09
 -0.4690458E-02  0.0000000E+00 -0.5050505E-02  0.1040097E-10  0.0000000E+00  0.9957733E-09
 -0.4611543E-02  0.0000000E+00 -0.5050505E-02  0.9886304E-11  0.0000000E+00  0.1002617E-08
 -0.4503035E-02  0.0000000E+00 -0.5050505E-02  0.9329050E-11  0.0000000E+00  0.1009098E-08
 -0.4345206E-02  0.0000000E+00 -0.5050505E-02  0.8731400E-11  0.0000000E+00  0.1015191E-08
 -0.4187378E-02  0.0000000E+00 -0.5050505E-02  0.8095670E-11  0.0000000E+00  0.1020867E-08
 -0.3985156E-02  0.0000000E+00 -0.5050505E-02  0.7424287E-11  0.0000000E+00  0.1026103E-08
 -0.3669499E-02  0.0000000E+00 -0.5050505E-02  0.6719731E-11  0.0000000E+00  0.1030875E-08
 -0.3353842E-02  0.0000000E+00 -0.5050505E-02  0.5984452E-11  0.0000000E+00  0.1035161E-08
 -0.2978990E-02  0.0000000E+00 -0.5050505E-02  0.5220668E-11  0.0000000E+00  0.1038941E-08
 -0.2347676E-02  0.0000000E+00 -0.5050505E-02  0.4430450E-11  0.0000000E+00  0.1042198E-08
 -0.1716362E-02  0.0000000E+00 -0.5050505E-02  0.3615604E-11  0.0000000E+00  0.1044913E-08
 -0.1025842E-02  0.0000000E+00 -0.5050505E-02  0.2778411E-11  0.0000000E+00  0.1047070E-08
  0.2367855E-03  0.0000000E+00 -0.5050505E-02  0.1923022E-11  0.0000000E+00  0.1048655E-08
  0.1499413E-02  0.0000000E+00 -0.5050505E-02  0.1058771E-11  0.0000000E+00  0.1049659E-08
  0.2762042E-02  0.0000000E+00 -0.5050505E-02  0.2036586E-12  0.0000000E+00  0.1050090E-08
 -0.5050505E-02  0.0000000E+00 -0.5050505E-02 -0.5411233E-12  0.0000000E+00  0.1049984E-08
 -0.5050505E-02  0.0000000E+00 -0.5050505E-02 -0.1325348E-11  0.0000000E+00  0.1049351E-08
 -0.5050505E-02  0.0000000E+00 -0.5050505E-02 -0.2221281E-11  0.0000000E+00  0.1048149E-08
 -0.5050505E-02  0.0000000E+00 -0.5050505E-02 -0.3101932E-11  0.0000000E+00  0.1046353E-08
 -0.5050505E-02  0.0000000E+00 -0.5050505E-02 -0.3951879E-11  0.0000000E+00  0.1043976E-08
 -0.5050505E-02  0.0000000E+00 -0.5050505E-02 -0.4774478E-11  0.0000000E+00  0.1041034E-08
 -0.5050505E-02  0.0000000E+00 -0.5050505E-02 -0.5572285E-11  0.0000000E+00  0.1037546E-08
 -0.5050504E-02  0.0000000E+00 -0.5050505E-02 -0.6345397E-11  0.0000000E+00  0.1033527E-08
 -0.5050501E-02  0.0000000E+00 -0.5050505E-02 -0.7092232E-11  0.0000000E+00  0.1028996E-08
 -0.5050495E-02  0.0000000E+00 -0.5050505E-02 -0.7810263E-11  0.0000000E+00  0.1023970E-08
 -0.5050482E-02  0.0000000E+00 -0.5050505E-02 -0.8496839E-11  0.0000000E+00  0.1018470E-08
 -0.5050449E-02  0.0000000E+00 -0.5050505E-02 -0.9149272E-11  0.0000000E+00  0.1012519E-08
 -0.5050376E-02  0.0000000E+00 -0.5050505E-02 -0.9764849E-11  0.0000000E+00  0.1006141E-08
 -0.5050299E-02  0.0000000E+00 -0.5050505E-02 -0.1034118E-10  0.0000000E+00  0.9993598E-09
 -0.5050178E-02  0.0000000E+00 -0.5050505E-02 -0.1087583E-10  0.0000000E+00  0.9922044E-09
 -0.5050018E-02  0.0000000E+00 -0.5050505E-02 -0.1136678E-10  0.0000000E+00  0.9847030E-09
 -0.5049710E-02  0.0000000E+00 -0.5050505E-02 -0.1181201E-10  0.0000000E+00  0.9768859E-09
 -0.5049253E-02  0.0000000E+00 -0.5050505E-02 -0.1220983E-10  0.0000000E+00  0.9687846E-09
 -0.5048636E-02  0.0000000E+00 -0.5050505E-02 -0.1255867E-10  0.0000000E+00  0.9604314E-09
 -0.5047442E-02  0.0000000E+00 -0.5050505E-02 -0.1285723E-10  0.0000000E+00  0.9518599E-09
 -0.5045727E-02  0.0000000E+00 -0.5050505E-02 -0.1310444E-10  0.0000000E+00  0.9431044E-09
 -0.5043261E-02  0.0000000E+00 -0.5050505E-02 -0.1329933E-10  0.0000000E+00  0.9341999E-09
 -0.5038714E-02  0.0000000E+00 -0.5050505E-02 -0.1344131E-10  0.0000000E+00  0.9251817E-09
 -0.5032318E-02  0.0000000E+00 -0.5050505E-02 -0.1352984E-10  0.0000000E+00  0.9160859E-09
 -0.5022454E-02  0.0000000E+00 -0.5050505E-02 -0.1356470E-10  0.0000000E+00  0.9069484E-09
 -0.5012589E-02  0.0000000E+00 -0.5050505E-02 -0.1354582E-10  0.0000000E+00  0.8978056E-09
 -0.5002725E-02  0.0000000E+00 -0.5050505E-02 -0.1347330E-10  0.0000000E+00  0.8886936E-09
 -0.4992860E-02  0.0000000E+00 -0.5050505E-02 -0.1334747E-10  0.0000000E+00  0.8796485E-09
 -0.4976523E-02  0.0000000E+00 -0.5050505E-02 -0.1316883E-10  0.0000000E+00  0.8707060E-09
 -0.4956794E-02  0.0000000E+00 -0.5050505E-02 -0.1293801E-10  0.0000000E+00  0.8619016E-09
 -0.4937066E-02  0.0000000E+00 -0.5050505E-02 -0.1265572E-10  0.0000000E+00  0.8532701E-09
 -0.4906239E-02  0.0000000E+00 -0.5050505E-02 -0.1232286E-10  0.0000000E+00  0.8448458E-09
 -0.4866782E-02  0.0000000E+00 -0.5050505E-02 -0.1194026E-10  0.0000000E+00  0.8366627E-09
 -0.4827325E-02  0.0000000E+00 -0.5050505E-02 -0.1150881E-10  0.0000000E+00  0.8287536E-09
 -0.4769372E-02  0.0000000E+00 -0.5050505E-02 -0.1102922E-10  0.0000000E+00  0.8211512E-09
 -0.4690458E-02  0.0000000E+00 -0.5050505E-02 -0.1050195E-10  0.0000000E+00  0.8138876E-09
 -0.4611543E-02  0.0000000E+00 -0.5050505E-02 -0.9926905E-11  0.0000000E+00  0.8069943E-09
 -0.4503035E-02  0.0000000E+00 -0.5050505E-02 -0.9302974E-11  0.0000000E+00  0.8005034E-09
 -0.4345206E-02  0.0000000E+00 -0.5050505E-02 -0.8627402E-11  0.0000000E+00  0.7944475E-09
 -0.4187378E-02  0.0000000E+00 -0.5050505E-02 -0.7894481E-11  0.0000000E+00  0.7888610E-09
 -0.3985156E-02  0.0000000E+00 -0.5050505E-02 -0.7093093E-11  0.0000000E+00  0.7837824E-09
 -0.3669499E-02  0.0000000E+00 -0.5050505E-02 -0.6202331E-11  0.0000000E+00  0.7792571E-09
 -0.3353842E-02  0.0000000E+00 -0.5050505E-02 -0.5182706E-11  0.0000000E+00  0.7753420E-09
 -0.2978990E-02  0.0000000E+00 -0.5050505E-02 -0.3957687E-11  0.0000000E+00  0.7721115E-09
 -0.2347676E-02  0.0000000E+00 -0.5050505E-02 -0.2372759E-11  0.0000000E+00  0.7696585E-09
 -0.1716362E-02  0.0000000E+00 -0.5050505E-02 -0.9329986E-13  0.0000000E+00  0.7680605E-09
 -0.1025842E-02  0.0000000E+00 -0.5050505E-02  0.3604166E-11  0.0000000E+00  0.7672034E-09
  0.2367855E-03  0.0000000E+00 -0.5050505E-02  0.1077586E-10  0.0000000E+00  0.7659237E-09
  0.1499413E-02  0.0000000E+00 -0.5050505E-02  0.2649098E-10  0.0000000E+00  0.7578016E-09
  0.5287294E-02  0.0000000E+00 -0.5050505E-02  0.6482004E-10  0.0000000E+00  0.7117934E-09
 -0.5050505E-02  0.0000000E+00 -0.5050505E-02  0.3980037E-12  0.0000000E+00  0.7852704E-09
 -0.5050505E-02  0.0000000E+00 -0.5050505E-02  0.1688913E-11  0.0000000E+00  0.7857451E-09
 -0.5050505E-02  0.0000000E+00 -0.5050505E-02  0.3181423E-11  0.0000000E+00  0.7867732E-09
 -0.5050505E-02  0.0000000E+00 -0.5050505E-02  0.4591249E-11  0.0000000E+00  0.7883768E-09
 -0.5050505E-02  0.0000000E+00 -0.5050505E-02  0.5947142E-11  0.0000000E+00  0.7905380E-09
 -0.5050505E-02  0.0000000E+00 -0.5050505E-02  0.7258314E-11  0.0000000E+00  0.7932417E-09
 -0.5050504E-02  0.0000000E+00 -0.5050505E-02  0.8530549E-11  0.0000000E+00  0.7964727E-09
 -0.5050501E-02  0.0000000E+00 -0.5050505E-02  0.9763773E-11  0.0000000E+00  0.8002157E-09
 -0.5050495E-02  0.0000000E+00 -0.5050505E-02  0.1095552E-10  0.0000000E+00  0.8044545E-09
 -0.5050482E-02  0.0000000E+00 -0.5050505E-02  0.1210307E-10  0.0000000E+00  0.8091717E-09
 -0.5050449E-02  0.0000000E+00 -0.5050505E-02  0.1320205E-10  0.0000000E+00  0.8143483E-09
 -0.5050376E-02  0.0000000E+00 -0.5050505E-02  0.1424835E-10  0.0000000E+00  0.8199637E-09
 -0.5050299E-02  0.0000000E+00 -0.5050505E-02  0.1523812E-10  0.0000000E+00  0.8259956E-09
 -0.5050178E-02  0.0000000E+00 -0.5050505E-02  0.1616728E-10  0.0000000E+00  0.8324201E-09
 -0.5050018E-02  0.0000000E+00 -0.5050505E-02  0.1703202E-10  0.0000000E+00  0.8392117E-09
 -0.5049710E-02  0.0000000E+00 -0.5050505E-02  0.1782884E-10  0.0000000E+00  0.8463433E-09
 -0.5049253E-02  0.0000000E+00 -0.5050505E-02  0.1855435E-10  0.0000000E+00  0.8537864E-09
 -0.5048636E-02  0.0000000E+00 -0.5050505E-02  0.1920546E-10  0.0000000E+00  0.8615113E-09
 -0.5047442E-02  0.0000000E+00 -0.5050505E-02  0.1977937E-10  0.0000000E+00  0.8694871E-09
 -0.5045727E-02  0.0000000E+00 -0.5050505E-02  0.2027342E-10  0.0000000E+00  0.8776815E-09
 -0.5043261E-02  0.0000000E+00 -0.5050505E-02  0.2068547E-10  0.0000000E+00  0.8860615E-09
 -0.5038714E-02  0.0000000E+00 -0.5050505E-02  0.2101348E-10  0.0000000E+00  0.8945931E-09
 -0.5032318E-02  0.0000000E+00 -0.5050505E-02  0.2125584E-10  0.0000000E+00  0.9032417E-09
 -0.5022454E-02  0.0000000E+00 -0.5050505E-02  0.2141127E-10  0.0000000E+00  0.9119719E-09
 -0.5012589E-02  0.0000000E+00 -0.5050505E-02  0.2147881E-10  0.0000000E+00  0.9207480E-09
 -0.5002725E-02  0.0000000E+00 -0.5050505E-02  0.2145779E-10  0.0000000E+00  0.9295339E-09
 -0.4992860E-02  0.0000000E+00 -0.5050505E-02  0.2134804E-10  0.0000000E+00  0.9382933E-09
 -0.4976523E-02  0.0000000E+00 -0.5050505E-02  0.2114961E-10  0.0000000E+00  0.9469898E-09
 -0.4956794E-02  0.0000000E+00 -0.5050505E-02  0.2086301E-10  0.0000000E+00  0.9555874E-09
 -0.4937066E-02  0.0000000E+00 -0.5050505E-02  0.2048912E-10  0.0000000E+00  0.9640501E-09
 -0.4906239E-02  0.0000000E+00 -0.5050505E-02  0.2002916E-10  0.0000000E+00  0.9723425E-09
 -0.4866782E-02  0.0000000E+00 -0.5050505E-02  0.1948470E-10  0.0000000E+00  0.9804295E-09
 -0.4827325E-02  0.0000000E+00 -0.5050505E-02  0.1885773E-10  0.0000000E+00  0.9882770E-09
 -0.4769372E-02  0.0000000E+00 -0.5050505E-02  0.1815060E-10  0.0000000E+00  0.9958518E-09
 -0.4690458E-02  0.0000000E+00 -0.5050505E-02  0.1736602E-10  0.0000000E+00  0.1003121E-08
 -0.4611543E-02  0.0000000E+00 -0.5050505E-02  0.1650691E-10  0.0000000E+00  0.1010055E-08
 -0.4503035E-02  0.0000000E+00 -0.5050505E-02  0.1557675E-10  0.0000000E+00  0.1016623E-08
 -0.4345206E-02  0.0000000E+00 -0.5050505E-02  0.1457909E-10  0.0000000E+00  0.1022796E-08
 -0.4187378E-02  0.0000000E+00 -0.5050505E-02  0.1351790E-10  0.0000000E+00  0.1028548E-08
 -0.3985156E-02  0.0000000E+00 -0.5050505E-02  0.1239719E-10  0.0000000E+00  0.1033854E-08
 -0.3669499E-02  0.0000000E+00 -0.5050505E-02  0.1122116E-10  0.0000000E+00  0.1038690E-08
 -0.3353842E-02  0.0000000E+00 -0.5050505E-02  0.9993861E-11  0.0000000E+00  0.1043034E-08
 -0.2978990E-02  0.0000000E+00 -0.5050505E-02  0.8719034E-11  0.0000000E+00  0.1046867E-08
 -0.2347676E-02  0.0000000E+00 -0.5050505E-02  0.7399891E-11  0.0000000E+00  0.1050169E-08
 -0.1716362E-02  0.0000000E+00 -0.5050505E-02  0.6039138E-11  0.0000000E+00  0.1052923E-08
 -0.1025842E-02  0.0000000E+00 -0.5050505E-02  0.4639852E-11  0.0000000E+00  0.1055111E-08
  0.2367855E-03  0.0000000E+00 -0.5050505E-02  0.3208750E-11  0.0000000E+00  0.1056718E-08
  0.1499413E-02  0.0000000E+00 -0.5050505E-02  0.1764733E-11  0.0000000E+00  0.1057733E-08
  0.2762042E-02  0.0000000E+00 -0.5050505E-02  0.3560525E-12  0.0000000E+00  0.1058172E-08
 -0.5050505E-02  0.0000000E+00 -0.5050505E-02 -0.8978174E-12  0.0000000E+00  0.1058071E-08
 -0.5050505E-02  0.0000000E+00 -0.5050505E-02 -0.2224332E-11  0.0000000E+00  0.1057431E-08
 -0.5050505E-02  0.0000000E+00 -0.5050505E-02 -0.3710590E-11  0.0000000E+00  0.1056211E-08
 -0.5050505E-02  0.0000000E+00 -0.5050505E-02 -0.5176142E-11  0.0000000E+00  0.1054393E-08
 -0.5050505E-02  0.0000000E+00 -0.5050505E-02 -0.6594320E-11  0.0000000E+00  0.1051988E-08
 -0.5050505E-02  0.0000000E+00 -0.5050505E-02 -0.7968047E-11  0.0000000E+00  0.1049011E-08
 -0.5050505E-02  0.0000000E+00 -0.5050505E-02 -0.9300534E-11  0.0000000E+00  0.1045480E-08
 -0.5050504E-02  0.0000000E+00 -0.5050505E-02 -0.1059163E-10  0.0000000E+00  0.1041412E-08
 -0.5050501E-02  0.0000000E+00 -0.5050505E-02 -0.1183865E-10  0.0000000E+00  0.1036824E-08
 -0.5050495E-02  0.0000000E+00 -0.5050505E-02 -0.1303748E-10  0.0000000E+00  0.1031736E-08
 -0.5050482E-02  0.0000000E+00 -0.5050505E-02 -0.1418375E-10  0.0000000E+00  0.1026168E-08
 -0.5050449E-02  0.0000000E+00 -0.5050505E-02 -0.1527295E-10  0.0000000E+00  0.1020142E-08
 -0.5050376E-02  0.0000000E+00 -0.5050505E-02 -0.1630064E-10  0.0000000E+00  0.1013683E-08
 -0.5050299E-02  0.0000000E+00 -0.5050505E-02 -0.1726271E-10  0.0000000E+00  0.1006817E-08
 -0.5050178E-02  0.0000000E+00 -0.5050505E-02 -0.1815528E-10  0.0000000E+00  0.9995715E-09
 -0.5050018E-02  0.0000000E+00 -0.5050505E-02 -0.1897481E-10  0.0000000E+00  0.9919758E-09
 -0.5049710E-02  0.0000000E+00 -0.5050505E-02 -0.1971801E-10  0.0000000E+00  0.9840605E-09
 -0.5049253E-02  0.0000000E+00 -0.5050505E-02 -0.2038206E-10  0.0000000E+00  0.9758573E-09
 -0.5048636E-02  0.0000000E+00 -0.5050505E-02 -0.2096431E-10  0.0000000E+00  0.9673992E-09
 -0.5047442E-02  0.0000000E+00 -0.5050505E-02 -0.2146267E-10  0.0000000E+00  0.9587202E-09
 -0.5045727E-02  0.0000000E+00 -0.5050505E-02 -0.2187521E-10  0.0000000E+00  0.9498549E-09
 -0.5043261E-02  0.0000000E+00 -0.5050505E-02 -0.2220050E-10  0.0000000E+00  0.9408387E-09
 -0.5038714E-02  0.0000000E+00 -0.5050505E-02 -0.2243740E-10  0.0000000E+00  0.9317077E-09
 -0.5032318E-02  0.0000000E+00 -0.5050505E-02 -0.2258513E-10  0.0000000E+00  0.9224980E-09
 -0.5022454E-02  0.0000000E+00 -0.5050505E-02 -0.2264326E-10  0.0000000E+00  0.9132463E-09
 -0.5012589E-02  0.0000000E+00 -0.5050505E-02 -0.2261169E-10  0.0000000E+00  0.9039893E-09
 -0.5002725E-02  0.0000000E+00 -0.5050505E-02 -0.2249064E-10  0.0000000E+00  0.8947635E-09
 -0.4992860E-02  0.0000000E+00 -0.5050505E-02 -0.2228064E-10  0.0000000E+00  0.8856054E-09
 -0.4976523E-02  0.0000000E+00 -0.5050505E-02 -0.2198257E-10  0.0000000E+00  0.8765512E-09
 -0.4956794E-02  0.0000000E+00 -0.5050505E-02 -0.2159743E-10  0.0000000E+00  0.8676365E-09
 -0.4937066E-02  0.0000000E+00 -0.5050505E-02 -0.2112654E-10  0.0000000E+00  0.8588966E-09
 -0.4906239E-02  0.0000000E+00 -0.5050505E-02 -0.2057136E-10  0.0000000E+00  0.8503662E-09
 -0.4866782E-02  0.0000000E+00 -0.5050505E-02 -0.1993345E-10  0.0000000E+00  0.8420791E-09
 -0.4827325E-02  0.0000000E+00 -0.5050505E-02 -0.1921429E-10  0.0000000E+00  0.8340685E-09
 -0.4769372E-02  0.0000000E+00 -0.5050505E-02 -0.1841534E-10  0.0000000E+00  0.8263669E-09
 -0.4690458E-02  0.0000000E+00 -0.5050505E-02 -0.1753757E-10  0.0000000E+00  0.8190059E-09
 -0.4611543E-02  0.0000000E+00 -0.5050505E-02 -0.1658131E-10  0.0000000E+00  0.8120165E-09
 -0.4503035E-02  0.0000000E+00 -0.5050505E-02 -0.1554553E-10  0.0000000E+00  0.8054292E-09
 -0.4345206E-02  0.0000000E+00 -0.5050505E-02 -0.1442702E-10  0.0000000E+00  0.7992738E-09
 -0.4187378E-02  0.0000000E+00 -0.5050505E-02 -0.1321883E-10  0.0000000E+00  0.7935803E-09
 -0.3985156E-02  0.0000000E+00 -0.5050505E-02 -0.1190752E-10  0.0000000E+00  0.7883782E-09
 -0.3669499E-02  0.0000000E+00 -0.5050505E-02 -0.1046842E-10  0.0000000E+00  0.7836968E-09
 -0.3353842E-02  0.0000000E+00 -0.5050505E-02 -0.8857281E-11  0.0000000E+00  0.7795622E-09
 -0.2978990E-02  0.0000000E+00 -0.5050505E-02 -0.6996861E-11  0.0000000E+00  0.7759894E-09
 -0.2347676E-02  0.0000000E+00 -0.5050505E-02 -0.4755910E-11  0.0000000E+00  0.7729537E-09
 -0.1716362E-02  0.0000000E+00 -0.5050505E-02 -0.1924508E-11  0.0000000E+00  0.7702997E-09
 -0.1025842E-02  0.0000000E+00 -0.5050505E-02  0.1883137E-11  0.0000000E+00  0.7676043E-09
  0.2367855E-03  0.0000000E+00 -0.5050505E-02  0.7159123E-11  0.0000000E+00  0.7635974E-09
  0.1499413E-02  0.0000000E+00 -0.5050505E-02  0.1377999E-10  0.0000000E+00  0.7555099E-09
  0.5287294E-02  0.0000000E+00 -0.5050505E-02  0.1644568E-10  0.0000000E+00  0.7406036E-09
 -0.5050505E-02  0.0000000E+00 -0.5050505E-02  0.6158470E-12  0.0000000E+00  0.7922005E-09
 -0.5050505E-02  0.0000000E+00 -0.5050505E-02  0.2424841E-11  0.0000000E+00  0.7926966E-09
 -0.5050505E-02  0.0000000E+00 -0.5050505E-02  0.4494506E-11  0.0000000E+00  0.7937566E-09
 -0.5050505E-02  0.0000000E+00 -0.5050505E-02  0.6461730E-11  0.0000000E+00  0.7953983E-09
 -0.5050505E-02  0.0000000E+00 -0.5050505E-02  0.8360838E-11  0.0000000E+00  0.7976048E-09
 -0.5050505E-02  0.0000000E+00 -0.5050505E-02  0.1020086E-10  0.0000000E+00  0.8003619E-09
 -0.5050504E-02  0.0000000E+00 -0.5050505E-02  0.1198716E-10  0.0000000E+00  0.8036550E-09
 -0.5050501E-02  0.0000000E+00 -0.5050505E-02  0.1371926E-10  0.0000000E+00  0.8074689E-09
 -0.5050495E-02  0.0000000E+00 -0.5050505E-02  0.1539344E-10  0.0000000E+00  0.8117876E-09
 -0.5050482E-02  0.0000000E+00 -0.5050505E-02  0.1700545E-10  0.0000000E+00  0.8165932E-09
 -0.5050449E-02  0.0000000E+00 -0.5050505E-02  0.1854948E-10  0.0000000E+00  0.8218668E-09
 -0.5050376E-02  0.0000000E+00 -0.5050505E-02  0.2001955E-10  0.0000000E+00  0.8275873E-09
 -0.5050299E-02  0.0000000E+00 -0.5050505E-02  0.2141025E-10  0.0000000E+00  0.8337321E-09
 -0.5050178E-02  0.0000000E+00 -0.5050505E-02  0.2271587E-10  0.0000000E+00  0.8402769E-09
 -0.5050018E-02  0.0000000E+00 -0.5050505E-02  0.2393107E-10  0.0000000E+00  0.8471958E-09
 -0.5049710E-02  0.0000000E+00 -0.5050505E-02  0.2505083E-10  0.0000000E+00  0.8544611E-09
 -0.5049253E-02  0.0000000E+00 -0.5050505E-02  0.2607050E-10  0.0000000E+00  0.8620442E-09
 -0.5048636E-02  0.0000000E+00 -0.5050505E-02  0.2698568E-10  0.0000000E+00  0.8699145E-09
 -0.5047442E-02  0.0000000E+00 -0.5050505E-02  0.2779236E-10  0.0000000E+00  0.8780406E-09
 -0.5045727E-02  0.0000000E+00 -0.5050505E-02  0.2848698E-10  0.0000000E+00  0.8863898E-09
 -0.5043261E-02  0.0000000E+00 -0.5050505E-02  0.2906632E-10  0.0000000E+00  0.8949284E-09
 -0.5038714E-02  0.0000000E+00 -0.5050505E-02  0.2952762E-10  0.0000000E+00  0.9036219E-09
 -0.5032318E-02  0.0000000E+00 -0.5050505E-02  0.2986862E-10  0.0000000E+00  0.9124349E-09
 -0.5022454E-02  0.0000000E+00 -0.5050505E-02  0.3008745E-10  0.0000000E+00  0.9213314E-09
 -0.5012589E-02  0.0000000E+00 -0.5050505E-02  0.3018279E-10  0.0000000E+00  0.9302750E-09
 -0.5002725E-02  0.0000000E+00 -0.5050505E-02  0.3015372E-10  0.0000000E+00  0.9392290E-09
 -0.4992860E-02  0.0000000E+00 -0.5050505E-02  0.2999996E-10  0.0000000E+00  0.9481563E-09
 -0.4976523E-02  0.0000000E+00 -0.5050505E-02  0.2972156E-10  0.0000000E+00  0.9570201E-09
 -0.4956794E-02  0.0000000E+00 -0.5050505E-02  0.2931929E-10  0.0000000E+00  0.9657834E-09
 -0.4937066E-02  0.0000000E+00 -0.5050505E-02  0.2879431E-10  0.0000000E+00  0.9744095E-09