title = "dataset feddes"
variables = "x", "y", "z", "vx", "vy", "vz"
zone t = "velocities, solution time =  3.800E+01 days        " i =   99, j =   99, k =    1,  f=point
 -0.5050505E-02  0.0000000E+00 -0.5050505E-02  0.4579764E-11  0.0000000E+00  0.5988506E-07
 -0.5050505E-02  0.0000000E+00 -0.5050505E-02  0.1488661E-10  0.0000000E+00  0.5990464E-07
 -0.5050505E-02  0.0000000E+00 -0.5050505E-02  0.2524852E-10  0.0000000E+00  0.5994500E-07
 -0.5050505E-02  0.0000000E+00 -0.5050505E-02  0.3532958E-10  0.0000000E+00  0.6000592E-07
 -0.5050505E-02  0.0000000E+00 -0.5050505E-02  0.4521501E-10  0.0000000E+00  0.6008692E-07
 -0.5050505E-02  0.0000000E+00 -0.5050505E-02  0.5489981E-10  0.0000000E+00  0.6018761E-07
 -0.5050504E-02  0.0000000E+00 -0.5050505E-02  0.6436048E-10  0.0000000E+00  0.6030754E-07
 -0.5050501E-02  0.0000000E+00 -0.5050505E-02  0.7356649E-10  0.0000000E+00  0.6044625E-07
 -0.5050495E-02  0.0000000E+00 -0.5050505E-02  0.8248464E-10  0.0000000E+00  0.6060318E-07
 -0.5050482E-02  0.0000000E+00 -0.5050505E-02  0.9108106E-10  0.0000000E+00  0.6077773E-07
 -0.5050449E-02  0.0000000E+00 -0.5050505E-02  0.9932222E-10  0.0000000E+00  0.6096921E-07
 -0.5050376E-02  0.0000000E+00 -0.5050505E-02  0.1071754E-09  0.0000000E+00  0.6117688E-07
 -0.5050299E-02  0.0000000E+00 -0.5050505E-02  0.1146090E-09  0.0000000E+00  0.6139992E-07
 -0.5050178E-02  0.0000000E+00 -0.5050505E-02  0.1215928E-09  0.0000000E+00  0.6163746E-07
 -0.5050018E-02  0.0000000E+00 -0.5050505E-02  0.1280979E-09  0.0000000E+00  0.6188857E-07
 -0.5049710E-02  0.0000000E+00 -0.5050505E-02  0.1340971E-09  0.0000000E+00  0.6215225E-07
 -0.5049253E-02  0.0000000E+00 -0.5050505E-02  0.1395650E-09  0.0000000E+00  0.6242746E-07
 -0.5048636E-02  0.0000000E+00 -0.5050505E-02  0.1444779E-09  0.0000000E+00  0.6271311E-07
 -0.5047442E-02  0.0000000E+00 -0.5050505E-02  0.1488141E-09  0.0000000E+00  0.6300806E-07
 -0.5045727E-02  0.0000000E+00 -0.5050505E-02  0.1525540E-09  0.0000000E+00  0.6331114E-07
 -0.5043261E-02  0.0000000E+00 -0.5050505E-02  0.1556804E-09  0.0000000E+00  0.6362112E-07
 -0.5038714E-02  0.0000000E+00 -0.5050505E-02  0.1581780E-09  0.0000000E+00  0.6393675E-07
 -0.5032318E-02  0.0000000E+00 -0.5050505E-02  0.1600342E-09  0.0000000E+00  0.6425677E-07
 -0.5022454E-02  0.0000000E+00 -0.5050505E-02  0.1612387E-09  0.0000000E+00  0.6457986E-07
 -0.5012589E-02  0.0000000E+00 -0.5050505E-02  0.1617839E-09  0.0000000E+00  0.6490471E-07
 -0.5002725E-02  0.0000000E+00 -0.5050505E-02  0.1616646E-09  0.0000000E+00  0.6522999E-07
 -0.4992860E-02  0.0000000E+00 -0.5050505E-02  0.1608786E-09  0.0000000E+00  0.6555436E-07
 -0.4976523E-02  0.0000000E+00 -0.5050505E-02  0.1594261E-09  0.0000000E+00  0.6587648E-07
 -0.4956794E-02  0.0000000E+00 -0.5050505E-02  0.1573104E-09  0.0000000E+00  0.6619501E-07
 -0.4937066E-02  0.0000000E+00 -0.5050505E-02  0.1545374E-09  0.0000000E+00  0.6650862E-07
 -0.4906239E-02  0.0000000E+00 -0.5050505E-02  0.1511158E-09  0.0000000E+00  0.6681601E-07
 -0.4866782E-02  0.0000000E+00 -0.5050505E-02  0.1470573E-09  0.0000000E+00  0.6711587E-07
 -0.4827325E-02  0.0000000E+00 -0.5050505E-02  0.1423763E-09  0.0000000E+00  0.6740694E-07
 -0.4769372E-02  0.0000000E+00 -0.5050505E-02  0.1370899E-09  0.0000000E+00  0.6768799E-07
 -0.4690458E-02  0.0000000E+00 -0.5050505E-02  0.1312181E-09  0.0000000E+00  0.6795782E-07
 -0.4611543E-02  0.0000000E+00 -0.5050505E-02  0.1247835E-09  0.0000000E+00  0.6821527E-07
 -0.4503035E-02  0.0000000E+00 -0.5050505E-02  0.1178112E-09  0.0000000E+00  0.6845924E-07
 -0.4345206E-02  0.0000000E+00 -0.5050505E-02  0.1103290E-09  0.0000000E+00  0.6868867E-07
 -0.4187378E-02  0.0000000E+00 -0.5050505E-02  0.1023668E-09  0.0000000E+00  0.6890257E-07
 -0.3985156E-02  0.0000000E+00 -0.5050505E-02  0.9395674E-10  0.0000000E+00  0.6910001E-07
 -0.3669499E-02  0.0000000E+00 -0.5050505E-02  0.8513306E-10  0.0000000E+00  0.6928011E-07
 -0.3353842E-02  0.0000000E+00 -0.5050505E-02  0.7593155E-10  0.0000000E+00  0.6944209E-07
 -0.2978990E-02  0.0000000E+00 -0.5050505E-02  0.6638931E-10  0.0000000E+00  0.6958521E-07
 -0.2347676E-02  0.0000000E+00 -0.5050505E-02  0.5654435E-10  0.0000000E+00  0.6970884E-07
 -0.1716362E-02  0.0000000E+00 -0.5050505E-02  0.4643507E-10  0.0000000E+00  0.6981241E-07
 -0.1025842E-02  0.0000000E+00 -0.5050505E-02  0.3610011E-10  0.0000000E+00  0.6989541E-07
  0.2367855E-03  0.0000000E+00 -0.5050505E-02  0.2557861E-10  0.0000000E+00  0.6995744E-07
  0.1499413E-02  0.0000000E+00 -0.5050505E-02  0.1491132E-10  0.0000000E+00  0.6999816E-07
  0.2762042E-02  0.0000000E+00 -0.5050505E-02  0.4142122E-11  0.0000000E+00  0.7001732E-07
 -0.5050505E-02  0.0000000E+00 -0.5050505E-02 -0.6675079E-11  0.0000000E+00  0.7001477E-07
 -0.5050505E-02  0.0000000E+00 -0.5050505E-02 -0.1745761E-10  0.0000000E+00  0.6999050E-07
 -0.5050505E-02  0.0000000E+00 -0.5050505E-02 -0.2821606E-10  0.0000000E+00  0.6994457E-07
 -0.5050505E-02  0.0000000E+00 -0.5050505E-02 -0.3882220E-10  0.0000000E+00  0.6987715E-07
 -0.5050505E-02  0.0000000E+00 -0.5050505E-02 -0.4924391E-10  0.0000000E+00  0.6978859E-07
 -0.5050505E-02  0.0000000E+00 -0.5050505E-02 -0.5945442E-10  0.0000000E+00  0.6967927E-07
 -0.5050505E-02  0.0000000E+00 -0.5050505E-02 -0.6942052E-10  0.0000000E+00  0.6954967E-07
 -0.5050504E-02  0.0000000E+00 -0.5050505E-02 -0.7910478E-10  0.0000000E+00  0.6940030E-07
 -0.5050501E-02  0.0000000E+00 -0.5050505E-02 -0.8846840E-10  0.0000000E+00  0.6923178E-07
 -0.5050495E-02  0.0000000E+00 -0.5050505E-02 -0.9747286E-10  0.0000000E+00  0.6904479E-07
 -0.5050482E-02  0.0000000E+00 -0.5050505E-02 -0.1060809E-09  0.0000000E+00  0.6884008E-07
 -0.5050449E-02  0.0000000E+00 -0.5050505E-02 -0.1142569E-09  0.0000000E+00  0.6861849E-07
 -0.5050376E-02  0.0000000E+00 -0.5050505E-02 -0.1219673E-09  0.0000000E+00  0.6838093E-07
 -0.5050299E-02  0.0000000E+00 -0.5050505E-02 -0.1291805E-09  0.0000000E+00  0.6812836E-07
 -0.5050178E-02  0.0000000E+00 -0.5050505E-02 -0.1358673E-09  0.0000000E+00  0.6786181E-07
 -0.5050018E-02  0.0000000E+00 -0.5050505E-02 -0.1420009E-09  0.0000000E+00  0.6758237E-07
 -0.5049710E-02  0.0000000E+00 -0.5050505E-02 -0.1475570E-09  0.0000000E+00  0.6729117E-07
 -0.5049253E-02  0.0000000E+00 -0.5050505E-02 -0.1525138E-09  0.0000000E+00  0.6698940E-07
 -0.5048636E-02  0.0000000E+00 -0.5050505E-02 -0.1568521E-09  0.0000000E+00  0.6667828E-07
 -0.5047442E-02  0.0000000E+00 -0.5050505E-02 -0.1605553E-09  0.0000000E+00  0.6635908E-07
 -0.5045727E-02  0.0000000E+00 -0.5050505E-02 -0.1636096E-09  0.0000000E+00  0.6603308E-07
 -0.5043261E-02  0.0000000E+00 -0.5050505E-02 -0.1660035E-09  0.0000000E+00  0.6570160E-07
 -0.5038714E-02  0.0000000E+00 -0.5050505E-02 -0.1677285E-09  0.0000000E+00  0.6536598E-07
 -0.5032318E-02  0.0000000E+00 -0.5050505E-02 -0.1687784E-09  0.0000000E+00  0.6502756E-07
 -0.5022454E-02  0.0000000E+00 -0.5050505E-02 -0.1691493E-09  0.0000000E+00  0.6468772E-07
 -0.5012589E-02  0.0000000E+00 -0.5050505E-02 -0.1688397E-09  0.0000000E+00  0.6434782E-07
 -0.5002725E-02  0.0000000E+00 -0.5050505E-02 -0.1678503E-09  0.0000000E+00  0.6400922E-07
 -0.4992860E-02  0.0000000E+00 -0.5050505E-02 -0.1661835E-09  0.0000000E+00  0.6367330E-07
 -0.4976523E-02  0.0000000E+00 -0.5050505E-02 -0.1638433E-09  0.0000000E+00  0.6334140E-07
 -0.4956794E-02  0.0000000E+00 -0.5050505E-02 -0.1608348E-09  0.0000000E+00  0.6301489E-07
 -0.4937066E-02  0.0000000E+00 -0.5050505E-02 -0.1571634E-09  0.0000000E+00  0.6269509E-07
 -0.4906239E-02  0.0000000E+00 -0.5050505E-02 -0.1528342E-09  0.0000000E+00  0.6238333E-07
 -0.4866782E-02  0.0000000E+00 -0.5050505E-02 -0.1478508E-09  0.0000000E+00  0.6208095E-07
 -0.4827325E-02  0.0000000E+00 -0.5050505E-02 -0.1422131E-09  0.0000000E+00  0.6178924E-07
 -0.4769372E-02  0.0000000E+00 -0.5050505E-02 -0.1359147E-09  0.0000000E+00  0.6150954E-07
 -0.4690458E-02  0.0000000E+00 -0.5050505E-02 -0.1289386E-09  0.0000000E+00  0.6124318E-07
 -0.4611543E-02  0.0000000E+00 -0.5050505E-02 -0.1212500E-09  0.0000000E+00  0.6099158E-07
 -0.4503035E-02  0.0000000E+00 -0.5050505E-02 -0.1127845E-09  0.0000000E+00  0.6075622E-07
 -0.4345206E-02  0.0000000E+00 -0.5050505E-02 -0.1034269E-09  0.0000000E+00  0.6053878E-07
 -0.4187378E-02  0.0000000E+00 -0.5050505E-02 -0.9297385E-10  0.0000000E+00  0.6034127E-07
 -0.3985156E-02  0.0000000E+00 -0.5050505E-02 -0.8106169E-10  0.0000000E+00  0.6016625E-07
 -0.3669499E-02  0.0000000E+00 -0.5050505E-02 -0.6702094E-10  0.0000000E+00  0.6001733E-07
 -0.3353842E-02  0.0000000E+00 -0.5050505E-02 -0.4956347E-10  0.0000000E+00  0.5990008E-07
 -0.2978990E-02  0.0000000E+00 -0.5050505E-02 -0.2605519E-10  0.0000000E+00  0.5982403E-07
 -0.2347676E-02  0.0000000E+00 -0.5050505E-02  0.9317957E-11  0.0000000E+00  0.5980720E-07
 -0.1716362E-02  0.0000000E+00 -0.5050505E-02  0.7061663E-10  0.0000000E+00  0.5988759E-07
 -0.1025842E-02  0.0000000E+00 -0.5050505E-02  0.1954942E-09  0.0000000E+00  0.6015521E-07
  0.2367855E-03  0.0000000E+00 -0.5050505E-02  0.4963140E-09  0.0000000E+00  0.6085093E-07
  0.1499413E-02  0.0000000E+00 -0.5050505E-02  0.1344129E-08  0.0000000E+00  0.6270180E-07
  0.5287294E-02  0.0000000E+00 -0.5050505E-02  0.2214272E-07  0.0000000E+00  0.5010000E-07
 -0.5050505E-02  0.0000000E+00 -0.5050505E-02  0.1404508E-10  0.0000000E+00  0.5995707E-07
 -0.5050505E-02  0.0000000E+00 -0.5050505E-02  0.4480031E-10  0.0000000E+00  0.5997720E-07
 -0.5050505E-02  0.0000000E+00 -0.5050505E-02  0.7579634E-10  0.0000000E+00  0.6001799E-07
 -0.5050505E-02  0.0000000E+00 -0.5050505E-02  0.1060101E-09  0.0000000E+00  0.6007932E-07
 -0.5050505E-02  0.0000000E+00 -0.5050505E-02  0.1356576E-09  0.0000000E+00  0.6016081E-07
 -0.5050505E-02  0.0000000E+00 -0.5050505E-02  0.1647104E-09  0.0000000E+00  0.6026208E-07
 -0.5050504E-02  0.0000000E+00 -0.5050505E-02  0.1930929E-09  0.0000000E+00  0.6038271E-07
 -0.5050501E-02  0.0000000E+00 -0.5050505E-02  0.2207123E-09  0.0000000E+00  0.6052222E-07
 -0.5050495E-02  0.0000000E+00 -0.5050505E-02  0.2474684E-09  0.0000000E+00  0.6068006E-07
 -0.5050482E-02  0.0000000E+00 -0.5050505E-02  0.2732597E-09  0.0000000E+00  0.6085562E-07
 -0.5050449E-02  0.0000000E+00 -0.5050505E-02  0.2979854E-09  0.0000000E+00  0.6104821E-07
 -0.5050376E-02  0.0000000E+00 -0.5050505E-02  0.3215474E-09  0.0000000E+00  0.6125709E-07
 -0.5050299E-02  0.0000000E+00 -0.5050505E-02  0.3438509E-09  0.0000000E+00  0.6148142E-07
 -0.5050178E-02  0.0000000E+00 -0.5050505E-02  0.3648051E-09  0.0000000E+00  0.6172034E-07
 -0.5050018E-02  0.0000000E+00 -0.5050505E-02  0.3843235E-09  0.0000000E+00  0.6197291E-07
 -0.5049710E-02  0.0000000E+00 -0.5050505E-02  0.4023243E-09  0.0000000E+00  0.6223814E-07
 -0.5049253E-02  0.0000000E+00 -0.5050505E-02  0.4187312E-09  0.0000000E+00  0.6251496E-07
 -0.5048636E-02  0.0000000E+00 -0.5050505E-02  0.4334731E-09  0.0000000E+00  0.6280229E-07
 -0.5047442E-02  0.0000000E+00 -0.5050505E-02  0.4464851E-09  0.0000000E+00  0.6309898E-07
 -0.5045727E-02  0.0000000E+00 -0.5050505E-02  0.4577085E-09  0.0000000E+00  0.6340384E-07
 -0.5043261E-02  0.0000000E+00 -0.5050505E-02  0.4670910E-09  0.0000000E+00  0.6371566E-07
 -0.5038714E-02  0.0000000E+00 -0.5050505E-02  0.4745872E-09  0.0000000E+00  0.6403317E-07
 -0.5032318E-02  0.0000000E+00 -0.5050505E-02  0.4801591E-09  0.0000000E+00  0.6435509E-07
 -0.5022454E-02  0.0000000E+00 -0.5050505E-02  0.4837757E-09  0.0000000E+00  0.6468011E-07
 -0.5012589E-02  0.0000000E+00 -0.5050505E-02  0.4854142E-09  0.0000000E+00  0.6500690E-07
 -0.5002725E-02  0.0000000E+00 -0.5050505E-02  0.4850591E-09  0.0000000E+00  0.6533414E-07
 -0.4992860E-02  0.0000000E+00 -0.5050505E-02  0.4827035E-09  0.0000000E+00  0.6566046E-07
 -0.4976523E-02  0.0000000E+00 -0.5050505E-02  0.4783483E-09  0.0000000E+00  0.6598452E-07
 -0.4956794E-02  0.0000000E+00 -0.5050505E-02  0.4720030E-09  0.0000000E+00  0.6630498E-07
 -0.4937066E-02  0.0000000E+00 -0.5050505E-02  0.4636853E-09  0.0000000E+00  0.6662050E-07
 -0.4906239E-02  0.0000000E+00 -0.5050505E-02  0.4534217E-09  0.0000000E+00  0.6692976E-07
 -0.4866782E-02  0.0000000E+00 -0.5050505E-02  0.4412468E-09  0.0000000E+00  0.6723145E-07
 -0.4827325E-02  0.0000000E+00 -0.5050505E-02  0.4272039E-09  0.0000000E+00  0.6752431E-07
 -0.4769372E-02  0.0000000E+00 -0.5050505E-02  0.4113445E-09  0.0000000E+00  0.6780708E-07
 -0.4690458E-02  0.0000000E+00 -0.5050505E-02  0.3937284E-09  0.0000000E+00  0.6807857E-07
 -0.4611543E-02  0.0000000E+00 -0.5050505E-02  0.3744233E-09  0.0000000E+00  0.6833762E-07
 -0.4503035E-02  0.0000000E+00 -0.5050505E-02  0.3535048E-09  0.0000000E+00  0.6858310E-07
 -0.4345206E-02  0.0000000E+00 -0.5050505E-02  0.3310558E-09  0.0000000E+00  0.6881396E-07
 -0.4187378E-02  0.0000000E+00 -0.5050505E-02  0.3071664E-09  0.0000000E+00  0.6902919E-07
 -0.3985156E-02  0.0000000E+00 -0.5050505E-02  0.2819333E-09  0.0000000E+00  0.6922787E-07
 -0.3669499E-02  0.0000000E+00 -0.5050505E-02  0.2554590E-09  0.0000000E+00  0.6940910E-07
 -0.3353842E-02  0.0000000E+00 -0.5050505E-02  0.2278509E-09  0.0000000E+00  0.6957211E-07
 -0.2978990E-02  0.0000000E+00 -0.5050505E-02  0.1992206E-09  0.0000000E+00  0.6971614E-07
 -0.2347676E-02  0.0000000E+00 -0.5050505E-02  0.1696818E-09  0.0000000E+00  0.6984057E-07
 -0.1716362E-02  0.0000000E+00 -0.5050505E-02  0.1393495E-09  0.0000000E+00  0.6994481E-07
 -0.1025842E-02  0.0000000E+00 -0.5050505E-02  0.1083387E-09  0.0000000E+00  0.7002836E-07
  0.2367855E-03  0.0000000E+00 -0.5050505E-02  0.7676607E-10  0.0000000E+00  0.7009080E-07
  0.1499413E-02  0.0000000E+00 -0.5050505E-02  0.4475501E-10  0.0000000E+00  0.7013180E-07
  0.2762042E-02  0.0000000E+00 -0.5050505E-02  0.1244559E-10  0.0000000E+00  0.7015111E-07
 -0.5050505E-02  0.0000000E+00 -0.5050505E-02 -0.2002704E-10  0.0000000E+00  0.7014857E-07
 -0.5050505E-02  0.0000000E+00 -0.5050505E-02 -0.5238336E-10  0.0000000E+00  0.7012415E-07
 -0.5050505E-02  0.0000000E+00 -0.5050505E-02 -0.8464599E-10  0.0000000E+00  0.7007795E-07
 -0.5050505E-02  0.0000000E+00 -0.5050505E-02 -0.1164651E-09  0.0000000E+00  0.7001016E-07
 -0.5050505E-02  0.0000000E+00 -0.5050505E-02 -0.1477368E-09  0.0000000E+00  0.6992109E-07
 -0.5050505E-02  0.0000000E+00 -0.5050505E-02 -0.1783756E-09  0.0000000E+00  0.6981115E-07
 -0.5050505E-02  0.0000000E+00 -0.5050505E-02 -0.2082803E-09  0.0000000E+00  0.6968079E-07
 -0.5050504E-02  0.0000000E+00 -0.5050505E-02 -0.2373386E-09  0.0000000E+00  0.6953054E-07
 -0.5050501E-02  0.0000000E+00 -0.5050505E-02 -0.2654343E-09  0.0000000E+00  0.6936102E-07
 -0.5050495E-02  0.0000000E+00 -0.5050505E-02 -0.2924520E-09  0.0000000E+00  0.6917291E-07
 -0.5050482E-02  0.0000000E+00 -0.5050505E-02 -0.3182799E-09  0.0000000E+00  0.6896699E-07
 -0.5050449E-02  0.0000000E+00 -0.5050505E-02 -0.3428113E-09  0.0000000E+00  0.6874408E-07
 -0.5050376E-02  0.0000000E+00 -0.5050505E-02 -0.3659452E-09  0.0000000E+00  0.6850510E-07
 -0.5050299E-02  0.0000000E+00 -0.5050505E-02 -0.3875872E-09  0.0000000E+00  0.6825103E-07
 -0.5050178E-02  0.0000000E+00 -0.5050505E-02 -0.4076497E-09  0.0000000E+00  0.6798289E-07
 -0.5050018E-02  0.0000000E+00 -0.5050505E-02 -0.4260522E-09  0.0000000E+00  0.6770178E-07
 -0.5049710E-02  0.0000000E+00 -0.5050505E-02 -0.4427217E-09  0.0000000E+00  0.6740885E-07
 -0.5049253E-02  0.0000000E+00 -0.5050505E-02 -0.4575929E-09  0.0000000E+00  0.6710528E-07
 -0.5048636E-02  0.0000000E+00 -0.5050505E-02 -0.4706083E-09  0.0000000E+00  0.6679232E-07
 -0.5047442E-02  0.0000000E+00 -0.5050505E-02 -0.4817183E-09  0.0000000E+00  0.6647122E-07
 -0.5045727E-02  0.0000000E+00 -0.5050505E-02 -0.4908811E-09  0.0000000E+00  0.6614328E-07
 -0.5043261E-02  0.0000000E+00 -0.5050505E-02 -0.4980631E-09  0.0000000E+00  0.6580984E-07
 -0.5038714E-02  0.0000000E+00 -0.5050505E-02 -0.5032380E-09  0.0000000E+00  0.6547223E-07
 -0.5032318E-02  0.0000000E+00 -0.5050505E-02 -0.5063875E-09  0.0000000E+00  0.6513181E-07
 -0.5022454E-02  0.0000000E+00 -0.5050505E-02 -0.5075004E-09  0.0000000E+00  0.6478996E-07
 -0.5012589E-02  0.0000000E+00 -0.5050505E-02 -0.5065724E-09  0.0000000E+00  0.6444804E-07
 -0.5002725E-02  0.0000000E+00 -0.5050505E-02 -0.5036056E-09  0.0000000E+00  0.6410744E-07
 -0.4992860E-02  0.0000000E+00 -0.5050505E-02 -0.4986076E-09  0.0000000E+00  0.6376952E-07
 -0.4976523E-02  0.0000000E+00 -0.5050505E-02 -0.4915908E-09  0.0000000E+00  0.6343564E-07
 -0.4956794E-02  0.0000000E+00 -0.5050505E-02 -0.4825710E-09  0.0000000E+00  0.6310717E-07
 -0.4937066E-02  0.0000000E+00 -0.5050505E-02 -0.4715655E-09  0.0000000E+00  0.6278543E-07
 -0.4906239E-02  0.0000000E+00 -0.5050505E-02 -0.4585908E-09  0.0000000E+00  0.6247176E-07
 -0.4866782E-02  0.0000000E+00 -0.5050505E-02 -0.4436592E-09  0.0000000E+00  0.6216748E-07
 -0.4827325E-02  0.0000000E+00 -0.5050505E-02 -0.4267733E-09  0.0000000E+00  0.6187390E-07
 -0.4769372E-02  0.0000000E+00 -0.5050505E-02 -0.4079185E-09  0.0000000E+00  0.6159232E-07
 -0.4690458E-02  0.0000000E+00 -0.5050505E-02 -0.3870510E-09  0.0000000E+00  0.6132406E-07
 -0.4611543E-02  0.0000000E+00 -0.5050505E-02 -0.3640782E-09  0.0000000E+00  0.6107048E-07
 -0.4503035E-02  0.0000000E+00 -0.5050505E-02 -0.3388275E-09  0.0000000E+00  0.6083299E-07
 -0.4345206E-02  0.0000000E+00 -0.5050505E-02 -0.3109916E-09  0.0000000E+00  0.6061314E-07
 -0.4187378E-02  0.0000000E+00 -0.5050505E-02 -0.2800328E-09  0.0000000E+00  0.6041269E-07
 -0.3985156E-02  0.0000000E+00 -0.5050505E-02 -0.2450055E-09  0.0000000E+00  0.6023374E-07
 -0.3669499E-02  0.0000000E+00 -0.5050505E-02 -0.2042148E-09  0.0000000E+00  0.6007898E-07
 -0.3353842E-02  0.0000000E+00 -0.5050505E-02 -0.1545247E-09  0.0000000E+00  0.5995204E-07
 -0.2978990E-02  0.0000000E+00 -0.5050505E-02 -0.8987607E-10  0.0000000E+00  0.5985793E-07
 -0.2347676E-02  0.0000000E+00 -0.5050505E-02  0.2119630E-11  0.0000000E+00  0.5980324E-07
 -0.1716362E-02  0.0000000E+00 -0.5050505E-02  0.1483077E-09  0.0000000E+00  0.5979420E-07
 -0.1025842E-02  0.0000000E+00 -0.5050505E-02  0.4107541E-09  0.0000000E+00  0.5982269E-07
  0.2367855E-03  0.0000000E+00 -0.5050505E-02  0.9429666E-09  0.0000000E+00  0.5979654E-07
  0.1499413E-02  0.0000000E+00 -0.5050505E-02  0.2146364E-08  0.0000000E+00  0.5921204E-07
  0.5287294E-02  0.0000000E+00 -0.5050505E-02  0.5119333E-08  0.0000000E+00  0.5563379E-07
 -0.5050505E-02  0.0000000E+00 -0.5050505E-02  0.2395774E-10  0.0000000E+00  0.6010257E-07
 -0.5050505E-02  0.0000000E+00 -0.5050505E-02  0.7505125E-10  0.0000000E+00  0.6012316E-07
 -0.5050505E-02  0.0000000E+00 -0.5050505E-02  0.1265915E-09  0.0000000E+00  0.6016456E-07
 -0.5050505E-02  0.0000000E+00 -0.5050505E-02  0.1769438E-09  0.0000000E+00  0.6022667E-07
 -0.5050505E-02  0.0000000E+00 -0.5050505E-02  0.2263927E-09  0.0000000E+00  0.6030912E-07
 -0.5050505E-02  0.0000000E+00 -0.5050505E-02  0.2748647E-09  0.0000000E+00  0.6041157E-07
 -0.5050504E-02  0.0000000E+00 -0.5050505E-02  0.3222242E-09  0.0000000E+00  0.6053360E-07
 -0.5050501E-02  0.0000000E+00 -0.5050505E-02  0.3683126E-09  0.0000000E+00  0.6067472E-07
 -0.5050495E-02  0.0000000E+00 -0.5050505E-02  0.4129621E-09  0.0000000E+00  0.6083438E-07
 -0.5050482E-02  0.0000000E+00 -0.5050505E-02  0.4560025E-09  0.0000000E+00  0.6101196E-07
 -0.5050449E-02  0.0000000E+00 -0.5050505E-02  0.4972660E-09  0.0000000E+00  0.6120678E-07
 -0.5050376E-02  0.0000000E+00 -0.5050505E-02  0.5365886E-09  0.0000000E+00  0.6141806E-07
 -0.5050299E-02  0.0000000E+00 -0.5050505E-02  0.5738120E-09  0.0000000E+00  0.6164500E-07
 -0.5050178E-02  0.0000000E+00 -0.5050505E-02  0.6087846E-09  0.0000000E+00  0.6188669E-07
 -0.5050018E-02  0.0000000E+00 -0.5050505E-02  0.6413619E-09  0.0000000E+00  0.6214220E-07
 -0.5049710E-02  0.0000000E+00 -0.5050505E-02  0.6714077E-09  0.0000000E+00  0.6241051E-07
 -0.5049253E-02  0.0000000E+00 -0.5050505E-02  0.6987943E-09  0.0000000E+00  0.6269056E-07
 -0.5048636E-02  0.0000000E+00 -0.5050505E-02  0.7234031E-09  0.0000000E+00  0.6298125E-07
 -0.5047442E-02  0.0000000E+00 -0.5050505E-02  0.7451257E-09  0.0000000E+00  0.6328142E-07
 -0.5045727E-02  0.0000000E+00 -0.5050505E-02  0.7638639E-09  0.0000000E+00  0.6358987E-07
 -0.5043261E-02  0.0000000E+00 -0.5050505E-02  0.7795303E-09  0.0000000E+00  0.6390537E-07
 -0.5038714E-02  0.0000000E+00 -0.5050505E-02  0.7920494E-09  0.0000000E+00  0.6422663E-07
 -0.5032318E-02  0.0000000E+00 -0.5050505E-02  0.8013572E-09  0.0000000E+00  0.6455237E-07
 -0.5022454E-02  0.0000000E+00 -0.5050505E-02  0.8074022E-09  0.0000000E+00  0.6488125E-07
 -0.5012589E-02  0.0000000E+00 -0.5050505E-02  0.8101459E-09  0.0000000E+00  0.6521194E-07
 -0.5002725E-02  0.0000000E+00 -0.5050505E-02  0.8095626E-09  0.0000000E+00  0.6554309E-07
 -0.4992860E-02  0.0000000E+00 -0.5050505E-02  0.8056404E-09  0.0000000E+00  0.6587332E-07
 -0.4976523E-02  0.0000000E+00 -0.5050505E-02  0.7983808E-09  0.0000000E+00  0.6620129E-07
 -0.4956794E-02  0.0000000E+00 -0.5050505E-02  0.7877994E-09  0.0000000E+00  0.6652561E-07
 -0.4937066E-02  0.0000000E+00 -0.5050505E-02  0.7739260E-09  0.0000000E+00  0.6684494E-07
 -0.4906239E-02  0.0000000E+00 -0.5050505E-02  0.7568041E-09  0.0000000E+00  0.6715795E-07
 -0.4866782E-02  0.0000000E+00 -0.5050505E-02  0.7364918E-09  0.0000000E+00  0.6746331E-07
 -0.4827325E-02  0.0000000E+00 -0.5050505E-02  0.7130611E-09  0.0000000E+00  0.6775974E-07
 -0.4769372E-02  0.0000000E+00 -0.5050505E-02  0.6865979E-09  0.0000000E+00  0.6804598E-07
 -0.4690458E-02  0.0000000E+00 -0.5050505E-02  0.6572019E-09  0.0000000E+00  0.6832080E-07
 -0.4611543E-02  0.0000000E+00 -0.5050505E-02  0.6249861E-09  0.0000000E+00  0.6858303E-07
 -0.4503035E-02  0.0000000E+00 -0.5050505E-02  0.5900765E-09  0.0000000E+00  0.6883154E-07
 -0.4345206E-02  0.0000000E+00 -0.5050505E-02  0.5526117E-09  0.0000000E+00  0.6906526E-07
 -0.4187378E-02  0.0000000E+00 -0.5050505E-02  0.5127421E-09  0.0000000E+00  0.6928317E-07
 -0.3985156E-02  0.0000000E+00 -0.5050505E-02  0.4706290E-09  0.0000000E+00  0.6948432E-07
 -0.3669499E-02  0.0000000E+00 -0.5050505E-02  0.4264437E-09  0.0000000E+00  0.6966783E-07
 -0.3353842E-02  0.0000000E+00 -0.5050505E-02  0.3803658E-09  0.0000000E+00  0.6983288E-07
 -0.2978990E-02  0.0000000E+00 -0.5050505E-02  0.3325814E-09  0.0000000E+00  0.6997874E-07
 -0.2347676E-02  0.0000000E+00 -0.5050505E-02  0.2832806E-09  0.0000000E+00  0.7010475E-07
 -0.1716362E-02  0.0000000E+00 -0.5050505E-02  0.2326542E-09  0.0000000E+00  0.7021033E-07
 -0.1025842E-02  0.0000000E+00 -0.5050505E-02  0.1808922E-09  0.0000000E+00  0.7029497E-07
  0.2367855E-03  0.0000000E+00 -0.5050505E-02  0.1281864E-09  0.0000000E+00  0.7035825E-07
  0.1499413E-02  0.0000000E+00 -0.5050505E-02  0.7474401E-10  0.0000000E+00  0.7039980E-07
  0.2762042E-02  0.0000000E+00 -0.5050505E-02  0.2082316E-10  0.0000000E+00  0.7041940E-07
 -0.5050505E-02  0.0000000E+00 -0.5050505E-02 -0.3339940E-10  0.0000000E+00  0.7041688E-07
 -0.5050505E-02  0.0000000E+00 -0.5050505E-02 -0.8741251E-10  0.0000000E+00  0.7039221E-07
 -0.5050505E-02  0.0000000E+00 -0.5050505E-02 -0.1412312E-09  0.0000000E+00  0.7034551E-07
 -0.5050505E-02  0.0000000E+00 -0.5050505E-02 -0.1943318E-09  0.0000000E+00  0.7027695E-07
 -0.5050505E-02  0.0000000E+00 -0.5050505E-02 -0.2465298E-09  0.0000000E+00  0.7018687E-07
 -0.5050505E-02  0.0000000E+00 -0.5050505E-02 -0.2976734E-09  0.0000000E+00  0.7007565E-07
 -0.5050505E-02  0.0000000E+00 -0.5050505E-02 -0.3475906E-09  0.0000000E+00  0.6994376E-07
 -0.5050504E-02  0.0000000E+00 -0.5050505E-02 -0.3960935E-09  0.0000000E+00  0.6979175E-07
 -0.5050501E-02  0.0000000E+00 -0.5050505E-02 -0.4429883E-09  0.0000000E+00  0.6962022E-07
 -0.5050495E-02  0.0000000E+00 -0.5050505E-02 -0.4880828E-09  0.0000000E+00  0.6942989E-07
 -0.5050482E-02  0.0000000E+00 -0.5050505E-02 -0.5311905E-09  0.0000000E+00  0.6922152E-07
 -0.5050449E-02  0.0000000E+00 -0.5050505E-02 -0.5721333E-09  0.0000000E+00  0.6899596E-07
 -0.5050376E-02  0.0000000E+00 -0.5050505E-02 -0.6107430E-09  0.0000000E+00  0.6875415E-07
 -0.5050299E-02  0.0000000E+00 -0.5050505E-02 -0.6468620E-09  0.0000000E+00  0.6849705E-07
 -0.5050178E-02  0.0000000E+00 -0.5050505E-02 -0.6803439E-09  0.0000000E+00  0.6822573E-07
 -0.5050018E-02  0.0000000E+00 -0.5050505E-02 -0.7110547E-09  0.0000000E+00  0.6794128E-07
 -0.5049710E-02  0.0000000E+00 -0.5050505E-02 -0.7388726E-09  0.0000000E+00  0.6764488E-07
 -0.5049253E-02  0.0000000E+00 -0.5050505E-02 -0.7636887E-09  0.0000000E+00  0.6733771E-07
 -0.5048636E-02  0.0000000E+00 -0.5050505E-02 -0.7854073E-09  0.0000000E+00  0.6702104E-07
 -0.5047442E-02  0.0000000E+00 -0.5050505E-02 -0.8039456E-09  0.0000000E+00  0.6669614E-07
 -0.5045727E-02  0.0000000E+00 -0.5050505E-02 -0.8192344E-09  0.0000000E+00  0.6636433E-07
 -0.5043261E-02  0.0000000E+00 -0.5050505E-02 -0.8312176E-09  0.0000000E+00  0.6602695E-07
 -0.5038714E-02  0.0000000E+00 -0.5050505E-02 -0.8398518E-09  0.0000000E+00  0.6568536E-07
 -0.5032318E-02  0.0000000E+00 -0.5050505E-02 -0.8451068E-09  0.0000000E+00  0.6534093E-07
 -0.5022454E-02  0.0000000E+00 -0.5050505E-02 -0.8469645E-09  0.0000000E+00  0.6499505E-07
 -0.5012589E-02  0.0000000E+00 -0.5050505E-02 -0.8454181E-09  0.0000000E+00  0.6464910E-07
 -0.5002725E-02  0.0000000E+00 -0.5050505E-02 -0.8404721E-09  0.0000000E+00  0.6430448E-07
 -0.4992860E-02  0.0000000E+00 -0.5050505E-02 -0.8321401E-09  0.0000000E+00  0.6396256E-07
 -0.4976523E-02  0.0000000E+00 -0.5050505E-02 -0.8204443E-09  0.0000000E+00  0.6362472E-07
 -0.4956794E-02  0.0000000E+00 -0.5050505E-02 -0.8054127E-09  0.0000000E+00  0.6329232E-07
 -0.4937066E-02  0.0000000E+00 -0.5050505E-02 -0.7870771E-09  0.0000000E+00  0.6296672E-07
 -0.4906239E-02  0.0000000E+00 -0.5050505E-02 -0.7654689E-09  0.0000000E+00  0.6264923E-07
 -0.4866782E-02  0.0000000E+00 -0.5050505E-02 -0.7406140E-09  0.0000000E+00  0.6234117E-07
 -0.4827325E-02  0.0000000E+00 -0.5050505E-02 -0.7125256E-09  0.0000000E+00  0.6204385E-07
 -0.4769372E-02  0.0000000E+00 -0.5050505E-02 -0.6811928E-09  0.0000000E+00  0.6175854E-07
 -0.4690458E-02  0.0000000E+00 -0.5050505E-02 -0.6465639E-09  0.0000000E+00  0.6148651E-07
 -0.4611543E-02  0.0000000E+00 -0.5050505E-02 -0.6085207E-09  0.0000000E+00  0.6122906E-07
 -0.4503035E-02  0.0000000E+00 -0.5050505E-02 -0.5668362E-09  0.0000000E+00  0.6098746E-07
 -0.4345206E-02  0.0000000E+00 -0.5050505E-02 -0.5211068E-09  0.0000000E+00  0.6076304E-07
 -0.4187378E-02  0.0000000E+00 -0.5050505E-02 -0.4706369E-09  0.0000000E+00  0.6055717E-07
 -0.3985156E-02  0.0000000E+00 -0.5050505E-02 -0.4142399E-09  0.0000000E+00  0.6037129E-07
 -0.3669499E-02  0.0000000E+00 -0.5050505E-02 -0.3498870E-09  0.0000000E+00  0.6020683E-07
 -0.3353842E-02  0.0000000E+00 -0.5050505E-02 -0.2740770E-09  0.0000000E+00  0.6006502E-07
 -0.2978990E-02  0.0000000E+00 -0.5050505E-02 -0.1807036E-09  0.0000000E+00  0.5994619E-07
 -0.2347676E-02  0.0000000E+00 -0.5050505E-02 -0.5895969E-10  0.0000000E+00  0.5984761E-07
 -0.1716362E-02  0.0000000E+00 -0.5050505E-02  0.1100770E-09  0.0000000E+00  0.5975764E-07
 -0.1025842E-02  0.0000000E+00 -0.5050505E-02  0.3571976E-09  0.0000000E+00  0.5963999E-07
  0.2367855E-03  0.0000000E+00 -0.5050505E-02  0.7211280E-09  0.0000000E+00  0.5939684E-07
  0.1499413E-02  0.0000000E+00 -0.5050505E-02  0.1187735E-08  0.0000000E+00  0.5881165E-07
  0.5287294E-02  0.0000000E+00 -0.5050505E-02  0.1339745E-08  0.0000000E+00  0.5766595E-07
 -0.5050505E-02  0.0000000E+00 -0.5050505E-02  0.3410035E-10  0.0000000E+00  0.6032179E-07
 -0.5050505E-02  0.0000000E+00 -0.5050505E-02  0.1057248E-09  0.0000000E+00  0.6034281E-07
 -0.5050505E-02  0.0000000E+00 -0.5050505E-02  0.1779110E-09  0.0000000E+00  0.6038500E-07
 -0.5050505E-02  0.0000000E+00 -0.5050505E-02  0.2485435E-09  0.0000000E+00  0.6044821E-07
 -0.5050505E-02  0.0000000E+00 -0.5050505E-02  0.3179507E-09  0.0000000E+00  0.6053210E-07
 -0.5050505E-02  0.0000000E+00 -0.5050505E-02  0.3860047E-09  0.0000000E+00  0.6063632E-07
 -0.5050504E-02  0.0000000E+00 -0.5050505E-02  0.4525051E-09  0.0000000E+00  0.6076044E-07
 -0.5050501E-02  0.0000000E+00 -0.5050505E-02  0.5172252E-09  0.0000000E+00  0.6090398E-07
 -0.5050495E-02  0.0000000E+00 -0.5050505E-02  0.5799276E-09  0.0000000E+00  0.6106638E-07
 -0.5050482E-02  0.0000000E+00 -0.5050505E-02  0.6403730E-09  0.0000000E+00  0.6124700E-07
 -0.5050449E-02  0.0000000E+00 -0.5050505E-02  0.6983252E-09  0.0000000E+00  0.6144516E-07
 -0.5050376E-02  0.0000000E+00 -0.5050505E-02  0.7535538E-09  0.0000000E+00  0.6166008E-07
 -0.5050299E-02  0.0000000E+00 -0.5050505E-02  0.8058364E-09  0.0000000E+00  0.6189092E-07
 -0.5050178E-02  0.0000000E+00 -0.5050505E-02  0.8549601E-09  0.0000000E+00  0.6213679E-07
 -0.5050018E-02  0.0000000E+00 -0.5050505E-02  0.9007218E-09  0.0000000E+00  0.6239671E-07
 -0.5049710E-02  0.0000000E+00 -0.5050505E-02  0.9429301E-09  0.0000000E+00  0.6266967E-07
 -0.5049253E-02  0.0000000E+00 -0.5050505E-02  0.9814054E-09  0.0000000E+00  0.6295459E-07
 -0.5048636E-02  0.0000000E+00 -0.5050505E-02  0.1015981E-08  0.0000000E+00  0.6325034E-07
 -0.5047442E-02  0.0000000E+00 -0.5050505E-02  0.1046505E-08  0.0000000E+00  0.6355575E-07
 -0.5045727E-02  0.0000000E+00 -0.5050505E-02  0.1072838E-08  0.0000000E+00  0.6386959E-07
 -0.5043261E-02  0.0000000E+00 -0.5050505E-02  0.1094859E-08  0.0000000E+00  0.6419062E-07
 -0.5038714E-02  0.0000000E+00 -0.5050505E-02  0.1112460E-08  0.0000000E+00  0.6451753E-07
 -0.5032318E-02  0.0000000E+00 -0.5050505E-02  0.1125552E-08  0.0000000E+00  0.6484901E-07
 -0.5022454E-02  0.0000000E+00 -0.5050505E-02  0.1134061E-08  0.0000000E+00  0.6518371E-07
 -0.5012589E-02  0.0000000E+00 -0.5050505E-02  0.1137934E-08  0.0000000E+00  0.6552027E-07
 -0.5002725E-02  0.0000000E+00 -0.5050505E-02  0.1137135E-08  0.0000000E+00  0.6585730E-07
 -0.4992860E-02  0.0000000E+00 -0.5050505E-02  0.1131645E-08  0.0000000E+00  0.6619342E-07
 -0.4976523E-02  0.0000000E+00 -0.5050505E-02  0.1121467E-08  0.0000000E+00  0.6652725E-07
 -0.4956794E-02  0.0000000E+00 -0.5050505E-02  0.1106623E-08  0.0000000E+00  0.6685739E-07
 -0.4937066E-02  0.0000000E+00 -0.5050505E-02  0.1087154E-08  0.0000000E+00  0.6718247E-07