title = "dataset feddes"
variables = "x", "y", "z", "vx", "vy", "vz"
zone t = "velocities, solution time =  5.600E+01 days        " i =   99, j =   99, k =    1,  f=point
 -0.5050505E-02  0.0000000E+00 -0.5050505E-02  0.1247972E-08  0.0000000E+00  0.1131931E-04
 -0.5050505E-02  0.0000000E+00 -0.5050505E-02  0.3739343E-08  0.0000000E+00  0.1132433E-04
 -0.5050505E-02  0.0000000E+00 -0.5050505E-02  0.6216289E-08  0.0000000E+00  0.1133435E-04
 -0.5050505E-02  0.0000000E+00 -0.5050505E-02  0.8669176E-08  0.0000000E+00  0.1134932E-04
 -0.5050505E-02  0.0000000E+00 -0.5050505E-02  0.1108851E-07  0.0000000E+00  0.1136920E-04
 -0.5050505E-02  0.0000000E+00 -0.5050505E-02  0.1346488E-07  0.0000000E+00  0.1139390E-04
 -0.5050504E-02  0.0000000E+00 -0.5050505E-02  0.1578899E-07  0.0000000E+00  0.1142333E-04
 -0.5050501E-02  0.0000000E+00 -0.5050505E-02  0.1805168E-07  0.0000000E+00  0.1145738E-04
 -0.5050495E-02  0.0000000E+00 -0.5050505E-02  0.2024400E-07  0.0000000E+00  0.1149590E-04
 -0.5050482E-02  0.0000000E+00 -0.5050505E-02  0.2235718E-07  0.0000000E+00  0.1153876E-04
 -0.5050449E-02  0.0000000E+00 -0.5050505E-02  0.2438270E-07  0.0000000E+00  0.1158578E-04
 -0.5050376E-02  0.0000000E+00 -0.5050505E-02  0.2631229E-07  0.0000000E+00  0.1163678E-04
 -0.5050299E-02  0.0000000E+00 -0.5050505E-02  0.2813801E-07  0.0000000E+00  0.1169156E-04
 -0.5050178E-02  0.0000000E+00 -0.5050505E-02  0.2985222E-07  0.0000000E+00  0.1174991E-04
 -0.5050018E-02  0.0000000E+00 -0.5050505E-02  0.3144762E-07  0.0000000E+00  0.1181158E-04
 -0.5049710E-02  0.0000000E+00 -0.5050505E-02  0.3291734E-07  0.0000000E+00  0.1187633E-04
 -0.5049253E-02  0.0000000E+00 -0.5050505E-02  0.3425488E-07  0.0000000E+00  0.1194391E-04
 -0.5048636E-02  0.0000000E+00 -0.5050505E-02  0.3545422E-07  0.0000000E+00  0.1201404E-04
 -0.5047442E-02  0.0000000E+00 -0.5050505E-02  0.3650981E-07  0.0000000E+00  0.1208644E-04
 -0.5045727E-02  0.0000000E+00 -0.5050505E-02  0.3741660E-07  0.0000000E+00  0.1216082E-04
 -0.5043261E-02  0.0000000E+00 -0.5050505E-02  0.3817007E-07  0.0000000E+00  0.1223686E-04
 -0.5038714E-02  0.0000000E+00 -0.5050505E-02  0.3876627E-07  0.0000000E+00  0.1231426E-04
 -0.5032318E-02  0.0000000E+00 -0.5050505E-02  0.3920186E-07  0.0000000E+00  0.1239270E-04
 -0.5022454E-02  0.0000000E+00 -0.5050505E-02  0.3947407E-07  0.0000000E+00  0.1247186E-04
 -0.5012589E-02  0.0000000E+00 -0.5050505E-02  0.3958082E-07  0.0000000E+00  0.1255139E-04
 -0.5002725E-02  0.0000000E+00 -0.5050505E-02  0.3952065E-07  0.0000000E+00  0.1263098E-04
 -0.4992860E-02  0.0000000E+00 -0.5050505E-02  0.3929281E-07  0.0000000E+00  0.1271027E-04
 -0.4976523E-02  0.0000000E+00 -0.5050505E-02  0.3889722E-07  0.0000000E+00  0.1278893E-04
 -0.4956794E-02  0.0000000E+00 -0.5050505E-02  0.3833455E-07  0.0000000E+00  0.1286663E-04
 -0.4937066E-02  0.0000000E+00 -0.5050505E-02  0.3760614E-07  0.0000000E+00  0.1294304E-04
 -0.4906239E-02  0.0000000E+00 -0.5050505E-02  0.3671411E-07  0.0000000E+00  0.1301781E-04
 -0.4866782E-02  0.0000000E+00 -0.5050505E-02  0.3566129E-07  0.0000000E+00  0.1309063E-04
 -0.4827325E-02  0.0000000E+00 -0.5050505E-02  0.3445123E-07  0.0000000E+00  0.1316117E-04
 -0.4769372E-02  0.0000000E+00 -0.5050505E-02  0.3308824E-07  0.0000000E+00  0.1322912E-04
 -0.4690458E-02  0.0000000E+00 -0.5050505E-02  0.3157733E-07  0.0000000E+00  0.1329418E-04
 -0.4611543E-02  0.0000000E+00 -0.5050505E-02  0.2992422E-07  0.0000000E+00  0.1335605E-04
 -0.4503035E-02  0.0000000E+00 -0.5050505E-02  0.2813532E-07  0.0000000E+00  0.1341447E-04
 -0.4345206E-02  0.0000000E+00 -0.5050505E-02  0.2621770E-07  0.0000000E+00  0.1346915E-04
 -0.4187378E-02  0.0000000E+00 -0.5050505E-02  0.2417908E-07  0.0000000E+00  0.1351986E-04
 -0.3985156E-02  0.0000000E+00 -0.5050505E-02  0.2202779E-07  0.0000000E+00  0.1356635E-04
 -0.3669499E-02  0.0000000E+00 -0.5050505E-02  0.1977273E-07  0.0000000E+00  0.1360840E-04
 -0.3353842E-02  0.0000000E+00 -0.5050505E-02  0.1742331E-07  0.0000000E+00  0.1364583E-04
 -0.2978990E-02  0.0000000E+00 -0.5050505E-02  0.1498946E-07  0.0000000E+00  0.1367844E-04
 -0.2347676E-02  0.0000000E+00 -0.5050505E-02  0.1248154E-07  0.0000000E+00  0.1370608E-04
 -0.1716362E-02  0.0000000E+00 -0.5050505E-02  0.9910284E-08  0.0000000E+00  0.1372860E-04
 -0.1025842E-02  0.0000000E+00 -0.5050505E-02  0.7286781E-08  0.0000000E+00  0.1374591E-04
  0.2367855E-03  0.0000000E+00 -0.5050505E-02  0.4622386E-08  0.0000000E+00  0.1375789E-04
  0.1499413E-02  0.0000000E+00 -0.5050505E-02  0.1928675E-08  0.0000000E+00  0.1376448E-04
  0.2762042E-02  0.0000000E+00 -0.5050505E-02 -0.7826211E-09  0.0000000E+00  0.1376563E-04
 -0.5050505E-02  0.0000000E+00 -0.5050505E-02 -0.3499673E-08  0.0000000E+00  0.1376132E-04
 -0.5050505E-02  0.0000000E+00 -0.5050505E-02 -0.6210623E-08  0.0000000E+00  0.1375155E-04
 -0.5050505E-02  0.0000000E+00 -0.5050505E-02 -0.8903642E-08  0.0000000E+00  0.1373635E-04
 -0.5050505E-02  0.0000000E+00 -0.5050505E-02 -0.1156700E-07  0.0000000E+00  0.1371575E-04
 -0.5050505E-02  0.0000000E+00 -0.5050505E-02 -0.1418911E-07  0.0000000E+00  0.1368984E-04
 -0.5050505E-02  0.0000000E+00 -0.5050505E-02 -0.1675863E-07  0.0000000E+00  0.1365870E-04
 -0.5050505E-02  0.0000000E+00 -0.5050505E-02 -0.1926445E-07  0.0000000E+00  0.1362246E-04
 -0.5050504E-02  0.0000000E+00 -0.5050505E-02 -0.2169582E-07  0.0000000E+00  0.1358125E-04
 -0.5050501E-02  0.0000000E+00 -0.5050505E-02 -0.2404238E-07  0.0000000E+00  0.1353523E-04
 -0.5050495E-02  0.0000000E+00 -0.5050505E-02 -0.2629417E-07  0.0000000E+00  0.1348459E-04
 -0.5050482E-02  0.0000000E+00 -0.5050505E-02 -0.2844173E-07  0.0000000E+00  0.1342952E-04
 -0.5050449E-02  0.0000000E+00 -0.5050505E-02 -0.3047613E-07  0.0000000E+00  0.1337024E-04
 -0.5050376E-02  0.0000000E+00 -0.5050505E-02 -0.3238899E-07  0.0000000E+00  0.1330699E-04
 -0.5050299E-02  0.0000000E+00 -0.5050505E-02 -0.3417251E-07  0.0000000E+00  0.1324002E-04
 -0.5050178E-02  0.0000000E+00 -0.5050505E-02 -0.3581953E-07  0.0000000E+00  0.1316960E-04
 -0.5050018E-02  0.0000000E+00 -0.5050505E-02 -0.3732353E-07  0.0000000E+00  0.1309602E-04
 -0.5049710E-02  0.0000000E+00 -0.5050505E-02 -0.3867866E-07  0.0000000E+00  0.1301955E-04
 -0.5049253E-02  0.0000000E+00 -0.5050505E-02 -0.3987974E-07  0.0000000E+00  0.1294051E-04
 -0.5048636E-02  0.0000000E+00 -0.5050505E-02 -0.4092230E-07  0.0000000E+00  0.1285922E-04
 -0.5047442E-02  0.0000000E+00 -0.5050505E-02 -0.4180255E-07  0.0000000E+00  0.1277599E-04
 -0.5045727E-02  0.0000000E+00 -0.5050505E-02 -0.4251738E-07  0.0000000E+00  0.1269116E-04
 -0.5043261E-02  0.0000000E+00 -0.5050505E-02 -0.4306440E-07  0.0000000E+00  0.1260506E-04
 -0.5038714E-02  0.0000000E+00 -0.5050505E-02 -0.4344186E-07  0.0000000E+00  0.1251803E-04
 -0.5032318E-02  0.0000000E+00 -0.5050505E-02 -0.4364871E-07  0.0000000E+00  0.1243041E-04
 -0.5022454E-02  0.0000000E+00 -0.5050505E-02 -0.4368448E-07  0.0000000E+00  0.1234254E-04
 -0.5012589E-02  0.0000000E+00 -0.5050505E-02 -0.4354934E-07  0.0000000E+00  0.1225478E-04
 -0.5002725E-02  0.0000000E+00 -0.5050505E-02 -0.4324400E-07  0.0000000E+00  0.1216746E-04
 -0.4992860E-02  0.0000000E+00 -0.5050505E-02 -0.4276968E-07  0.0000000E+00  0.1208092E-04
 -0.4976523E-02  0.0000000E+00 -0.5050505E-02 -0.4212802E-07  0.0000000E+00  0.1199551E-04
 -0.4956794E-02  0.0000000E+00 -0.5050505E-02 -0.4132102E-07  0.0000000E+00  0.1191156E-04
 -0.4937066E-02  0.0000000E+00 -0.5050505E-02 -0.4035088E-07  0.0000000E+00  0.1182939E-04
 -0.4906239E-02  0.0000000E+00 -0.5050505E-02 -0.3921986E-07  0.0000000E+00  0.1174934E-04
 -0.4866782E-02  0.0000000E+00 -0.5050505E-02 -0.3793002E-07  0.0000000E+00  0.1167172E-04
 -0.4827325E-02  0.0000000E+00 -0.5050505E-02 -0.3648290E-07  0.0000000E+00  0.1159686E-04
 -0.4769372E-02  0.0000000E+00 -0.5050505E-02 -0.3487895E-07  0.0000000E+00  0.1152507E-04
 -0.4690458E-02  0.0000000E+00 -0.5050505E-02 -0.3311676E-07  0.0000000E+00  0.1145666E-04
 -0.4611543E-02  0.0000000E+00 -0.5050505E-02 -0.3119169E-07  0.0000000E+00  0.1139196E-04
 -0.4503035E-02  0.0000000E+00 -0.5050505E-02 -0.2909372E-07  0.0000000E+00  0.1133132E-04
 -0.4345206E-02  0.0000000E+00 -0.5050505E-02 -0.2680359E-07  0.0000000E+00  0.1127508E-04
 -0.4187378E-02  0.0000000E+00 -0.5050505E-02 -0.2428588E-07  0.0000000E+00  0.1122368E-04
 -0.3985156E-02  0.0000000E+00 -0.5050505E-02 -0.2147570E-07  0.0000000E+00  0.1117765E-04
 -0.3669499E-02  0.0000000E+00 -0.5050505E-02 -0.1825189E-07  0.0000000E+00  0.1113768E-04
 -0.3353842E-02  0.0000000E+00 -0.5050505E-02 -0.1437926E-07  0.0000000E+00  0.1110485E-04
 -0.2978990E-02  0.0000000E+00 -0.5050505E-02 -0.9374303E-08  0.0000000E+00  0.1108095E-04
 -0.2347676E-02  0.0000000E+00 -0.5050505E-02 -0.2166382E-08  0.0000000E+00  0.1106934E-04
 -0.1716362E-02  0.0000000E+00 -0.5050505E-02  0.9838380E-08  0.0000000E+00  0.1107706E-04
 -0.1025842E-02  0.0000000E+00 -0.5050505E-02  0.3359574E-07  0.0000000E+00  0.1112076E-04
  0.2367855E-03  0.0000000E+00 -0.5050505E-02  0.8984877E-07  0.0000000E+00  0.1124495E-04
  0.1499413E-02  0.0000000E+00 -0.5050505E-02  0.2471427E-06  0.0000000E+00  0.1158397E-04
  0.5287294E-02  0.0000000E+00 -0.5050505E-02  0.4089291E-05  0.0000000E+00  0.9254789E-05
 -0.5050505E-02  0.0000000E+00 -0.5050505E-02  0.3743741E-08  0.0000000E+00  0.1133478E-04
 -0.5050505E-02  0.0000000E+00 -0.5050505E-02  0.1121735E-07  0.0000000E+00  0.1133983E-04
 -0.5050505E-02  0.0000000E+00 -0.5050505E-02  0.1864773E-07  0.0000000E+00  0.1134990E-04
 -0.5050505E-02  0.0000000E+00 -0.5050505E-02  0.2600596E-07  0.0000000E+00  0.1136495E-04
 -0.5050505E-02  0.0000000E+00 -0.5050505E-02  0.3326359E-07  0.0000000E+00  0.1138494E-04
 -0.5050505E-02  0.0000000E+00 -0.5050505E-02  0.4039237E-07  0.0000000E+00  0.1140977E-04
 -0.5050504E-02  0.0000000E+00 -0.5050505E-02  0.4736442E-07  0.0000000E+00  0.1143936E-04
 -0.5050501E-02  0.0000000E+00 -0.5050505E-02  0.5415230E-07  0.0000000E+00  0.1147360E-04
 -0.5050495E-02  0.0000000E+00 -0.5050505E-02  0.6072914E-07  0.0000000E+00  0.1151233E-04
 -0.5050482E-02  0.0000000E+00 -0.5050505E-02  0.6706864E-07  0.0000000E+00  0.1155543E-04
 -0.5050449E-02  0.0000000E+00 -0.5050505E-02  0.7314524E-07  0.0000000E+00  0.1160271E-04
 -0.5050376E-02  0.0000000E+00 -0.5050505E-02  0.7893419E-07  0.0000000E+00  0.1165399E-04
 -0.5050299E-02  0.0000000E+00 -0.5050505E-02  0.8441158E-07  0.0000000E+00  0.1170907E-04
 -0.5050178E-02  0.0000000E+00 -0.5050505E-02  0.8955452E-07  0.0000000E+00  0.1176773E-04
 -0.5050018E-02  0.0000000E+00 -0.5050505E-02  0.9434116E-07  0.0000000E+00  0.1182975E-04
 -0.5049710E-02  0.0000000E+00 -0.5050505E-02  0.9875082E-07  0.0000000E+00  0.1189486E-04
 -0.5049253E-02  0.0000000E+00 -0.5050505E-02  0.1027640E-06  0.0000000E+00  0.1196282E-04
 -0.5048636E-02  0.0000000E+00 -0.5050505E-02  0.1063628E-06  0.0000000E+00  0.1203334E-04
 -0.5047442E-02  0.0000000E+00 -0.5050505E-02  0.1095303E-06  0.0000000E+00  0.1210615E-04
 -0.5045727E-02  0.0000000E+00 -0.5050505E-02  0.1122515E-06  0.0000000E+00  0.1218094E-04
 -0.5043261E-02  0.0000000E+00 -0.5050505E-02  0.1145128E-06  0.0000000E+00  0.1225742E-04
 -0.5038714E-02  0.0000000E+00 -0.5050505E-02  0.1163023E-06  0.0000000E+00  0.1233526E-04
 -0.5032318E-02  0.0000000E+00 -0.5050505E-02  0.1176100E-06  0.0000000E+00  0.1241415E-04
 -0.5022454E-02  0.0000000E+00 -0.5050505E-02  0.1184276E-06  0.0000000E+00  0.1249375E-04
 -0.5012589E-02  0.0000000E+00 -0.5050505E-02  0.1187489E-06  0.0000000E+00  0.1257375E-04
 -0.5002725E-02  0.0000000E+00 -0.5050505E-02  0.1185693E-06  0.0000000E+00  0.1265379E-04
 -0.4992860E-02  0.0000000E+00 -0.5050505E-02  0.1178868E-06  0.0000000E+00  0.1273354E-04
 -0.4976523E-02  0.0000000E+00 -0.5050505E-02  0.1167009E-06  0.0000000E+00  0.1281267E-04
 -0.4956794E-02  0.0000000E+00 -0.5050505E-02  0.1150138E-06  0.0000000E+00  0.1289082E-04
 -0.4937066E-02  0.0000000E+00 -0.5050505E-02  0.1128294E-06  0.0000000E+00  0.1296768E-04
 -0.4906239E-02  0.0000000E+00 -0.5050505E-02  0.1101540E-06  0.0000000E+00  0.1304289E-04
 -0.4866782E-02  0.0000000E+00 -0.5050505E-02  0.1069962E-06  0.0000000E+00  0.1311614E-04
 -0.4827325E-02  0.0000000E+00 -0.5050505E-02  0.1033666E-06  0.0000000E+00  0.1318710E-04
 -0.4769372E-02  0.0000000E+00 -0.5050505E-02  0.9927814E-07  0.0000000E+00  0.1325546E-04
 -0.4690458E-02  0.0000000E+00 -0.5050505E-02  0.9474577E-07  0.0000000E+00  0.1332091E-04
 -0.4611543E-02  0.0000000E+00 -0.5050505E-02  0.8978668E-07  0.0000000E+00  0.1338316E-04
 -0.4503035E-02  0.0000000E+00 -0.5050505E-02  0.8442011E-07  0.0000000E+00  0.1344193E-04
 -0.4345206E-02  0.0000000E+00 -0.5050505E-02  0.7866727E-07  0.0000000E+00  0.1349695E-04
 -0.4187378E-02  0.0000000E+00 -0.5050505E-02  0.7255132E-07  0.0000000E+00  0.1354797E-04
 -0.3985156E-02  0.0000000E+00 -0.5050505E-02  0.6609723E-07  0.0000000E+00  0.1359475E-04
 -0.3669499E-02  0.0000000E+00 -0.5050505E-02  0.5933170E-07  0.0000000E+00  0.1363707E-04
 -0.3353842E-02  0.0000000E+00 -0.5050505E-02  0.5228302E-07  0.0000000E+00  0.1367473E-04
 -0.2978990E-02  0.0000000E+00 -0.5050505E-02  0.4498094E-07  0.0000000E+00  0.1370755E-04
 -0.2347676E-02  0.0000000E+00 -0.5050505E-02  0.3745655E-07  0.0000000E+00  0.1373536E-04
 -0.1716362E-02  0.0000000E+00 -0.5050505E-02  0.2974210E-07  0.0000000E+00  0.1375804E-04
 -0.1025842E-02  0.0000000E+00 -0.5050505E-02  0.2187084E-07  0.0000000E+00  0.1377546E-04
  0.2367855E-03  0.0000000E+00 -0.5050505E-02  0.1387684E-07  0.0000000E+00  0.1378753E-04
  0.1499413E-02  0.0000000E+00 -0.5050505E-02  0.5794867E-08  0.0000000E+00  0.1379418E-04
  0.2762042E-02  0.0000000E+00 -0.5050505E-02 -0.2339886E-08  0.0000000E+00  0.1379536E-04
 -0.5050505E-02  0.0000000E+00 -0.5050505E-02 -0.1049192E-07  0.0000000E+00  0.1379104E-04
 -0.5050505E-02  0.0000000E+00 -0.5050505E-02 -0.1862563E-07  0.0000000E+00  0.1378123E-04
 -0.5050505E-02  0.0000000E+00 -0.5050505E-02 -0.2670554E-07  0.0000000E+00  0.1376595E-04
 -0.5050505E-02  0.0000000E+00 -0.5050505E-02 -0.3469641E-07  0.0000000E+00  0.1374525E-04
 -0.5050505E-02  0.0000000E+00 -0.5050505E-02 -0.4256352E-07  0.0000000E+00  0.1371920E-04
 -0.5050505E-02  0.0000000E+00 -0.5050505E-02 -0.5027275E-07  0.0000000E+00  0.1368789E-04
 -0.5050505E-02  0.0000000E+00 -0.5050505E-02 -0.5779084E-07  0.0000000E+00  0.1365145E-04
 -0.5050504E-02  0.0000000E+00 -0.5050505E-02 -0.6508551E-07  0.0000000E+00  0.1361001E-04
 -0.5050501E-02  0.0000000E+00 -0.5050505E-02 -0.7212563E-07  0.0000000E+00  0.1356374E-04
 -0.5050495E-02  0.0000000E+00 -0.5050505E-02 -0.7888136E-07  0.0000000E+00  0.1351282E-04
 -0.5050482E-02  0.0000000E+00 -0.5050505E-02 -0.8532432E-07  0.0000000E+00  0.1345744E-04
 -0.5050449E-02  0.0000000E+00 -0.5050505E-02 -0.9142767E-07  0.0000000E+00  0.1339783E-04
 -0.5050376E-02  0.0000000E+00 -0.5050505E-02 -0.9716629E-07  0.0000000E+00  0.1333423E-04
 -0.5050299E-02  0.0000000E+00 -0.5050505E-02 -0.1025168E-06  0.0000000E+00  0.1326689E-04
 -0.5050178E-02  0.0000000E+00 -0.5050505E-02 -0.1074577E-06  0.0000000E+00  0.1319608E-04
 -0.5050018E-02  0.0000000E+00 -0.5050505E-02 -0.1119695E-06  0.0000000E+00  0.1312208E-04
 -0.5049710E-02  0.0000000E+00 -0.5050505E-02 -0.1160346E-06  0.0000000E+00  0.1304519E-04
 -0.5049253E-02  0.0000000E+00 -0.5050505E-02 -0.1196375E-06  0.0000000E+00  0.1296571E-04
 -0.5048636E-02  0.0000000E+00 -0.5050505E-02 -0.1227647E-06  0.0000000E+00  0.1288396E-04
 -0.5047442E-02  0.0000000E+00 -0.5050505E-02 -0.1254050E-06  0.0000000E+00  0.1280027E-04
 -0.5045727E-02  0.0000000E+00 -0.5050505E-02 -0.1275490E-06  0.0000000E+00  0.1271497E-04
 -0.5043261E-02  0.0000000E+00 -0.5050505E-02 -0.1291895E-06  0.0000000E+00  0.1262839E-04
 -0.5038714E-02  0.0000000E+00 -0.5050505E-02 -0.1303215E-06  0.0000000E+00  0.1254088E-04
 -0.5032318E-02  0.0000000E+00 -0.5050505E-02 -0.1309416E-06  0.0000000E+00  0.1245278E-04
 -0.5022454E-02  0.0000000E+00 -0.5050505E-02 -0.1310486E-06  0.0000000E+00  0.1236443E-04
 -0.5012589E-02  0.0000000E+00 -0.5050505E-02 -0.1306430E-06  0.0000000E+00  0.1227619E-04
 -0.5002725E-02  0.0000000E+00 -0.5050505E-02 -0.1297270E-06  0.0000000E+00  0.1218839E-04
 -0.4992860E-02  0.0000000E+00 -0.5050505E-02 -0.1283042E-06  0.0000000E+00  0.1210138E-04
 -0.4976523E-02  0.0000000E+00 -0.5050505E-02 -0.1263798E-06  0.0000000E+00  0.1201550E-04
 -0.4956794E-02  0.0000000E+00 -0.5050505E-02 -0.1239598E-06  0.0000000E+00  0.1193108E-04
 -0.4937066E-02  0.0000000E+00 -0.5050505E-02 -0.1210510E-06  0.0000000E+00  0.1184846E-04
 -0.4906239E-02  0.0000000E+00 -0.5050505E-02 -0.1176604E-06  0.0000000E+00  0.1176796E-04
 -0.4866782E-02  0.0000000E+00 -0.5050505E-02 -0.1137945E-06  0.0000000E+00  0.1168990E-04
 -0.4827325E-02  0.0000000E+00 -0.5050505E-02 -0.1094585E-06  0.0000000E+00  0.1161460E-04
 -0.4769372E-02  0.0000000E+00 -0.5050505E-02 -0.1046544E-06  0.0000000E+00  0.1154238E-04
 -0.4690458E-02  0.0000000E+00 -0.5050505E-02 -0.9937947E-07  0.0000000E+00  0.1147354E-04
 -0.4611543E-02  0.0000000E+00 -0.5050505E-02 -0.9362189E-07  0.0000000E+00  0.1140841E-04
 -0.4503035E-02  0.0000000E+00 -0.5050505E-02 -0.8735547E-07  0.0000000E+00  0.1134730E-04
 -0.4345206E-02  0.0000000E+00 -0.5050505E-02 -0.8052942E-07  0.0000000E+00  0.1129055E-04
 -0.4187378E-02  0.0000000E+00 -0.5050505E-02 -0.7305077E-07  0.0000000E+00  0.1123855E-04
 -0.3985156E-02  0.0000000E+00 -0.5050505E-02 -0.6475175E-07  0.0000000E+00  0.1119174E-04
 -0.3669499E-02  0.0000000E+00 -0.5050505E-02 -0.5532684E-07  0.0000000E+00  0.1115065E-04
 -0.3353842E-02  0.0000000E+00 -0.5050505E-02 -0.4420475E-07  0.0000000E+00  0.1111599E-04
 -0.2978990E-02  0.0000000E+00 -0.5050505E-02 -0.3027362E-07  0.0000000E+00  0.1108872E-04
 -0.2347676E-02  0.0000000E+00 -0.5050505E-02 -0.1125612E-07  0.0000000E+00  0.1107009E-04
 -0.1716362E-02  0.0000000E+00 -0.5050505E-02  0.1779786E-07  0.0000000E+00  0.1106128E-04
 -0.1025842E-02  0.0000000E+00 -0.5050505E-02  0.6836011E-07  0.0000000E+00  0.1106081E-04
  0.2367855E-03  0.0000000E+00 -0.5050505E-02  0.1687697E-06  0.0000000E+00  0.1105169E-04
  0.1499413E-02  0.0000000E+00 -0.5050505E-02  0.3931937E-06  0.0000000E+00  0.1094090E-04
  0.5287294E-02  0.0000000E+00 -0.5050505E-02  0.9446180E-06  0.0000000E+00  0.1027848E-04
 -0.5050505E-02  0.0000000E+00 -0.5050505E-02  0.6245920E-08  0.0000000E+00  0.1136576E-04
 -0.5050505E-02  0.0000000E+00 -0.5050505E-02  0.1871438E-07  0.0000000E+00  0.1137086E-04
 -0.5050505E-02  0.0000000E+00 -0.5050505E-02  0.3111077E-07  0.0000000E+00  0.1138104E-04
 -0.5050505E-02  0.0000000E+00 -0.5050505E-02  0.4338691E-07  0.0000000E+00  0.1139626E-04
 -0.5050505E-02  0.0000000E+00 -0.5050505E-02  0.5549533E-07  0.0000000E+00  0.1141646E-04
 -0.5050505E-02  0.0000000E+00 -0.5050505E-02  0.6738893E-07  0.0000000E+00  0.1144157E-04
 -0.5050504E-02  0.0000000E+00 -0.5050505E-02  0.7902122E-07  0.0000000E+00  0.1147148E-04
 -0.5050501E-02  0.0000000E+00 -0.5050505E-02  0.9034645E-07  0.0000000E+00  0.1150608E-04
 -0.5050495E-02  0.0000000E+00 -0.5050505E-02  0.1013198E-06  0.0000000E+00  0.1154524E-04
 -0.5050482E-02  0.0000000E+00 -0.5050505E-02  0.1118974E-06  0.0000000E+00  0.1158880E-04
 -0.5050449E-02  0.0000000E+00 -0.5050505E-02  0.1220367E-06  0.0000000E+00  0.1163660E-04
 -0.5050376E-02  0.0000000E+00 -0.5050505E-02  0.1316963E-06  0.0000000E+00  0.1168844E-04
 -0.5050299E-02  0.0000000E+00 -0.5050505E-02  0.1408363E-06  0.0000000E+00  0.1174413E-04
 -0.5050178E-02  0.0000000E+00 -0.5050505E-02  0.1494187E-06  0.0000000E+00  0.1180343E-04
 -0.5050018E-02  0.0000000E+00 -0.5050505E-02  0.1574068E-06  0.0000000E+00  0.1186613E-04
 -0.5049710E-02  0.0000000E+00 -0.5050505E-02  0.1647663E-06  0.0000000E+00  0.1193197E-04
 -0.5049253E-02  0.0000000E+00 -0.5050505E-02  0.1714645E-06  0.0000000E+00  0.1200068E-04
 -0.5048636E-02  0.0000000E+00 -0.5050505E-02  0.1774714E-06  0.0000000E+00  0.1207199E-04
 -0.5047442E-02  0.0000000E+00 -0.5050505E-02  0.1827591E-06  0.0000000E+00  0.1214561E-04
 -0.5045727E-02  0.0000000E+00 -0.5050505E-02  0.1873023E-06  0.0000000E+00  0.1222124E-04
 -0.5043261E-02  0.0000000E+00 -0.5050505E-02  0.1910783E-06  0.0000000E+00  0.1229858E-04
 -0.5038714E-02  0.0000000E+00 -0.5050505E-02  0.1940673E-06  0.0000000E+00  0.1237730E-04
 -0.5032318E-02  0.0000000E+00 -0.5050505E-02  0.1962525E-06  0.0000000E+00  0.1245709E-04
 -0.5022454E-02  0.0000000E+00 -0.5050505E-02  0.1976200E-06  0.0000000E+00  0.1253760E-04
 -0.5012589E-02  0.0000000E+00 -0.5050505E-02  0.1981592E-06  0.0000000E+00  0.1261851E-04
 -0.5002725E-02  0.0000000E+00 -0.5050505E-02  0.1978630E-06  0.0000000E+00  0.1269947E-04
 -0.4992860E-02  0.0000000E+00 -0.5050505E-02  0.1967273E-06  0.0000000E+00  0.1278015E-04
 -0.4976523E-02  0.0000000E+00 -0.5050505E-02  0.1947517E-06  0.0000000E+00  0.1286019E-04
 -0.4956794E-02  0.0000000E+00 -0.5050505E-02  0.1919396E-06  0.0000000E+00  0.1293926E-04
 -0.4937066E-02  0.0000000E+00 -0.5050505E-02  0.1882976E-06  0.0000000E+00  0.1301701E-04
 -0.4906239E-02  0.0000000E+00 -0.5050505E-02  0.1838361E-06  0.0000000E+00  0.1309311E-04
 -0.4866782E-02  0.0000000E+00 -0.5050505E-02  0.1785694E-06  0.0000000E+00  0.1316723E-04
 -0.4827325E-02  0.0000000E+00 -0.5050505E-02  0.1725152E-06  0.0000000E+00  0.1323903E-04
 -0.4769372E-02  0.0000000E+00 -0.5050505E-02  0.1656949E-06  0.0000000E+00  0.1330820E-04
 -0.4690458E-02  0.0000000E+00 -0.5050505E-02  0.1581336E-06  0.0000000E+00  0.1337444E-04
 -0.4611543E-02  0.0000000E+00 -0.5050505E-02  0.1498600E-06  0.0000000E+00  0.1343744E-04
 -0.4503035E-02  0.0000000E+00 -0.5050505E-02  0.1409061E-06  0.0000000E+00  0.1349693E-04
 -0.4345206E-02  0.0000000E+00 -0.5050505E-02  0.1313073E-06  0.0000000E+00  0.1355262E-04
 -0.4187378E-02  0.0000000E+00 -0.5050505E-02  0.1211022E-06  0.0000000E+00  0.1360426E-04
 -0.3985156E-02  0.0000000E+00 -0.5050505E-02  0.1103325E-06  0.0000000E+00  0.1365162E-04
 -0.3669499E-02  0.0000000E+00 -0.5050505E-02  0.9904280E-07  0.0000000E+00  0.1369446E-04
 -0.3353842E-02  0.0000000E+00 -0.5050505E-02  0.8728030E-07  0.0000000E+00  0.1373260E-04
 -0.2978990E-02  0.0000000E+00 -0.5050505E-02  0.7509468E-07  0.0000000E+00  0.1376583E-04
 -0.2347676E-02  0.0000000E+00 -0.5050505E-02  0.6253782E-07  0.0000000E+00  0.1379401E-04
 -0.1716362E-02  0.0000000E+00 -0.5050505E-02  0.4966358E-07  0.0000000E+00  0.1381699E-04
 -0.1025842E-02  0.0000000E+00 -0.5050505E-02  0.3652748E-07  0.0000000E+00  0.1383465E-04
  0.2367855E-03  0.0000000E+00 -0.5050505E-02  0.2318643E-07  0.0000000E+00  0.1384690E-04
  0.1499413E-02  0.0000000E+00 -0.5050505E-02  0.9698451E-08  0.0000000E+00  0.1385365E-04
  0.2762042E-02  0.0000000E+00 -0.5050505E-02 -0.3877662E-08  0.0000000E+00  0.1385488E-04
 -0.5050505E-02  0.0000000E+00 -0.5050505E-02 -0.1748263E-07  0.0000000E+00  0.1385054E-04
 -0.5050505E-02  0.0000000E+00 -0.5050505E-02 -0.3105701E-07  0.0000000E+00  0.1384065E-04
 -0.5050505E-02  0.0000000E+00 -0.5050505E-02 -0.4454153E-07  0.0000000E+00  0.1382522E-04
 -0.5050505E-02  0.0000000E+00 -0.5050505E-02 -0.5787739E-07  0.0000000E+00  0.1380431E-04
 -0.5050505E-02  0.0000000E+00 -0.5050505E-02 -0.7100656E-07  0.0000000E+00  0.1377798E-04
 -0.5050505E-02  0.0000000E+00 -0.5050505E-02 -0.8387211E-07  0.0000000E+00  0.1374634E-04
 -0.5050505E-02  0.0000000E+00 -0.5050505E-02 -0.9641849E-07  0.0000000E+00  0.1370951E-04
 -0.5050504E-02  0.0000000E+00 -0.5050505E-02 -0.1085918E-06  0.0000000E+00  0.1366761E-04
 -0.5050501E-02  0.0000000E+00 -0.5050505E-02 -0.1203401E-06  0.0000000E+00  0.1362083E-04
 -0.5050495E-02  0.0000000E+00 -0.5050505E-02 -0.1316135E-06  0.0000000E+00  0.1356934E-04
 -0.5050482E-02  0.0000000E+00 -0.5050505E-02 -0.1423648E-06  0.0000000E+00  0.1351335E-04
 -0.5050449E-02  0.0000000E+00 -0.5050505E-02 -0.1525490E-06  0.0000000E+00  0.1345308E-04
 -0.5050376E-02  0.0000000E+00 -0.5050505E-02 -0.1621243E-06  0.0000000E+00  0.1338877E-04
 -0.5050299E-02  0.0000000E+00 -0.5050505E-02 -0.1710517E-06  0.0000000E+00  0.1332068E-04
 -0.5050178E-02  0.0000000E+00 -0.5050505E-02 -0.1792954E-06  0.0000000E+00  0.1324908E-04
 -0.5050018E-02  0.0000000E+00 -0.5050505E-02 -0.1868227E-06  0.0000000E+00  0.1317426E-04
 -0.5049710E-02  0.0000000E+00 -0.5050505E-02 -0.1936045E-06  0.0000000E+00  0.1309652E-04
 -0.5049253E-02  0.0000000E+00 -0.5050505E-02 -0.1996148E-06  0.0000000E+00  0.1301616E-04
 -0.5048636E-02  0.0000000E+00 -0.5050505E-02 -0.2048313E-06  0.0000000E+00  0.1293351E-04
 -0.5047442E-02  0.0000000E+00 -0.5050505E-02 -0.2092351E-06  0.0000000E+00  0.1284890E-04
 -0.5045727E-02  0.0000000E+00 -0.5050505E-02 -0.2128108E-06  0.0000000E+00  0.1276265E-04
 -0.5043261E-02  0.0000000E+00 -0.5050505E-02 -0.2155465E-06  0.0000000E+00  0.1267512E-04
 -0.5038714E-02  0.0000000E+00 -0.5050505E-02 -0.2174336E-06  0.0000000E+00  0.1258665E-04
 -0.5032318E-02  0.0000000E+00 -0.5050505E-02 -0.2184669E-06  0.0000000E+00  0.1249758E-04
 -0.5022454E-02  0.0000000E+00 -0.5050505E-02 -0.2186443E-06  0.0000000E+00  0.1240827E-04
 -0.5012589E-02  0.0000000E+00 -0.5050505E-02 -0.2179669E-06  0.0000000E+00  0.1231906E-04
 -0.5002725E-02  0.0000000E+00 -0.5050505E-02 -0.2164384E-06  0.0000000E+00  0.1223030E-04
 -0.4992860E-02  0.0000000E+00 -0.5050505E-02 -0.2140652E-06  0.0000000E+00  0.1214234E-04
 -0.4976523E-02  0.0000000E+00 -0.5050505E-02 -0.2108560E-06  0.0000000E+00  0.1205552E-04
 -0.4956794E-02  0.0000000E+00 -0.5050505E-02 -0.2068214E-06  0.0000000E+00  0.1197018E-04
 -0.4937066E-02  0.0000000E+00 -0.5050505E-02 -0.2019731E-06  0.0000000E+00  0.1188664E-04
 -0.4906239E-02  0.0000000E+00 -0.5050505E-02 -0.1963235E-06  0.0000000E+00  0.1180525E-04
 -0.4866782E-02  0.0000000E+00 -0.5050505E-02 -0.1898847E-06  0.0000000E+00  0.1172631E-04
 -0.4827325E-02  0.0000000E+00 -0.5050505E-02 -0.1826666E-06  0.0000000E+00  0.1165015E-04
 -0.4769372E-02  0.0000000E+00 -0.5050505E-02 -0.1746755E-06  0.0000000E+00  0.1157708E-04
 -0.4690458E-02  0.0000000E+00 -0.5050505E-02 -0.1659104E-06  0.0000000E+00  0.1150739E-04
 -0.4611543E-02  0.0000000E+00 -0.5050505E-02 -0.1563585E-06  0.0000000E+00  0.1144139E-04
 -0.4503035E-02  0.0000000E+00 -0.5050505E-02 -0.1459872E-06  0.0000000E+00  0.1137938E-04
 -0.4345206E-02  0.0000000E+00 -0.5050505E-02 -0.1347319E-06  0.0000000E+00  0.1132166E-04
 -0.4187378E-02  0.0000000E+00 -0.5050505E-02 -0.1224745E-06  0.0000000E+00  0.1126854E-04
 -0.3985156E-02  0.0000000E+00 -0.5050505E-02 -0.1090074E-06  0.0000000E+00  0.1122034E-04
 -0.3669499E-02  0.0000000E+00 -0.5050505E-02 -0.9396825E-07  0.0000000E+00  0.1117736E-04
 -0.3353842E-02  0.0000000E+00 -0.5050505E-02 -0.7672377E-07  0.0000000E+00  0.1113987E-04
 -0.2978990E-02  0.0000000E+00 -0.5050505E-02 -0.5615641E-07  0.0000000E+00  0.1110796E-04
 -0.2347676E-02  0.0000000E+00 -0.5050505E-02 -0.3028303E-07  0.0000000E+00  0.1108117E-04
 -0.1716362E-02  0.0000000E+00 -0.5050505E-02  0.4372565E-08  0.0000000E+00  0.1105738E-04
 -0.1025842E-02  0.0000000E+00 -0.5050505E-02  0.5350993E-07  0.0000000E+00  0.1102989E-04
  0.2367855E-03  0.0000000E+00 -0.5050505E-02  0.1242856E-06  0.0000000E+00  0.1098066E-04
  0.1499413E-02  0.0000000E+00 -0.5050505E-02  0.2140978E-06  0.0000000E+00  0.1086969E-04
  0.5287294E-02  0.0000000E+00 -0.5050505E-02  0.2458890E-06  0.0000000E+00  0.1065661E-04
 -0.5050505E-02  0.0000000E+00 -0.5050505E-02  0.8768051E-08  0.0000000E+00  0.1141230E-04
 -0.5050505E-02  0.0000000E+00 -0.5050505E-02  0.2627115E-07  0.0000000E+00  0.1141748E-04
 -0.5050505E-02  0.0000000E+00 -0.5050505E-02  0.4367318E-07  0.0000000E+00  0.1142783E-04
 -0.5050505E-02  0.0000000E+00 -0.5050505E-02  0.6090661E-07  0.0000000E+00  0.1144329E-04
 -0.5050505E-02  0.0000000E+00 -0.5050505E-02  0.7790483E-07  0.0000000E+00  0.1146382E-04
 -0.5050505E-02  0.0000000E+00 -0.5050505E-02  0.9460179E-07  0.0000000E+00  0.1148932E-04
 -0.5050504E-02  0.0000000E+00 -0.5050505E-02  0.1109323E-06  0.0000000E+00  0.1151972E-04
 -0.5050501E-02  0.0000000E+00 -0.5050505E-02  0.1268321E-06  0.0000000E+00  0.1155488E-04
 -0.5050495E-02  0.0000000E+00 -0.5050505E-02  0.1422385E-06  0.0000000E+00  0.1159467E-04
 -0.5050482E-02  0.0000000E+00 -0.5050505E-02  0.1570898E-06  0.0000000E+00  0.1163894E-04
 -0.5050449E-02  0.0000000E+00 -0.5050505E-02  0.1713262E-06  0.0000000E+00  0.1168751E-04
 -0.5050376E-02  0.0000000E+00 -0.5050505E-02  0.1848898E-06  0.0000000E+00  0.1174019E-04
 -0.5050299E-02  0.0000000E+00 -0.5050505E-02  0.1977246E-06  0.0000000E+00  0.1179679E-04
 -0.5050178E-02  0.0000000E+00 -0.5050505E-02  0.2097770E-06  0.0000000E+00  0.1185707E-04
 -0.5050018E-02  0.0000000E+00 -0.5050505E-02  0.2209958E-06  0.0000000E+00  0.1192079E-04
 -0.5049710E-02  0.0000000E+00 -0.5050505E-02  0.2313325E-06  0.0000000E+00  0.1198771E-04
 -0.5049253E-02  0.0000000E+00 -0.5050505E-02  0.2407415E-06  0.0000000E+00  0.1205756E-04
 -0.5048636E-02  0.0000000E+00 -0.5050505E-02  0.2491803E-06  0.0000000E+00  0.1213005E-04
 -0.5047442E-02  0.0000000E+00 -0.5050505E-02  0.2566098E-06  0.0000000E+00  0.1220489E-04
 -0.5045727E-02  0.0000000E+00 -0.5050505E-02  0.2629945E-06  0.0000000E+00  0.1228179E-04
 -0.5043261E-02  0.0000000E+00 -0.5050505E-02  0.2683024E-06  0.0000000E+00  0.1236042E-04
 -0.5038714E-02  0.0000000E+00 -0.5050505E-02  0.2725056E-06  0.0000000E+00  0.1244047E-04
 -0.5032318E-02  0.0000000E+00 -0.5050505E-02  0.2755805E-06  0.0000000E+00  0.1252160E-04
 -0.5022454E-02  0.0000000E+00 -0.5050505E-02  0.2775074E-06  0.0000000E+00  0.1260349E-04
 -0.5012589E-02  0.0000000E+00 -0.5050505E-02  0.2782715E-06  0.0000000E+00  0.1268577E-04
 -0.5002725E-02  0.0000000E+00 -0.5050505E-02  0.2778624E-06  0.0000000E+00  0.1276812E-04
 -0.4992860E-02  0.0000000E+00 -0.5050505E-02  0.2762746E-06  0.0000000E+00  0.1285018E-04
 -0.4976523E-02  0.0000000E+00 -0.5050505E-02  0.2735074E-06  0.0000000E+00  0.1293161E-04
 -0.4956794E-02  0.0000000E+00 -0.5050505E-02  0.2695651E-06  0.0000000E+00  0.1301204E-04
 -0.4937066E-02  0.0000000E+00 -0.5050505E-02  0.2644573E-06  0.0000000E+00  0.1309115E-04