title = "dataset feddes"
variables = "x", "y", "z", "vx", "vy", "vz"
zone t = "velocities, solution time =  5.000E+00 days        " i =   99, j =   99, k =    1,  f=point
 -0.5050505E-02  0.0000000E+00 -0.5050505E-02 -0.1396846E-13  0.0000000E+00 -0.1591654E-09
 -0.5050505E-02  0.0000000E+00 -0.5050505E-02 -0.1587291E-13  0.0000000E+00 -0.1591952E-09
 -0.5050505E-02  0.0000000E+00 -0.5050505E-02 -0.1893952E-13  0.0000000E+00 -0.1592300E-09
 -0.5050505E-02  0.0000000E+00 -0.5050505E-02 -0.7835234E-14  0.0000000E+00 -0.1592568E-09
 -0.5050505E-02  0.0000000E+00 -0.5050505E-02 -0.1806977E-14  0.0000000E+00 -0.1592665E-09
 -0.5050505E-02  0.0000000E+00 -0.5050505E-02 -0.2570257E-13  0.0000000E+00 -0.1592940E-09
 -0.5050504E-02  0.0000000E+00 -0.5050505E-02 -0.1590290E-13  0.0000000E+00 -0.1593356E-09
 -0.5050501E-02  0.0000000E+00 -0.5050505E-02 -0.3748916E-16  0.0000000E+00 -0.1593515E-09
 -0.5050495E-02  0.0000000E+00 -0.5050505E-02  0.5938282E-14  0.0000000E+00 -0.1593456E-09
 -0.5050482E-02  0.0000000E+00 -0.5050505E-02  0.9814661E-14  0.0000000E+00 -0.1593299E-09
 -0.5050449E-02  0.0000000E+00 -0.5050505E-02  0.1142670E-13  0.0000000E+00 -0.1593086E-09
 -0.5050376E-02  0.0000000E+00 -0.5050505E-02  0.8794956E-14  0.0000000E+00 -0.1592884E-09
 -0.5050299E-02  0.0000000E+00 -0.5050505E-02  0.4206283E-14  0.0000000E+00 -0.1592754E-09
 -0.5050178E-02  0.0000000E+00 -0.5050505E-02  0.6523113E-15  0.0000000E+00 -0.1592705E-09
 -0.5050018E-02  0.0000000E+00 -0.5050505E-02 -0.9822159E-15  0.0000000E+00 -0.1592709E-09
 -0.5049710E-02  0.0000000E+00 -0.5050505E-02 -0.1184657E-14  0.0000000E+00 -0.1592730E-09
 -0.5049253E-02  0.0000000E+00 -0.5050505E-02 -0.7947701E-15  0.0000000E+00 -0.1592750E-09
 -0.5048636E-02  0.0000000E+00 -0.5050505E-02 -0.6748048E-16  0.0000000E+00 -0.1592759E-09
 -0.5047442E-02  0.0000000E+00 -0.5050505E-02  0.4348742E-15  0.0000000E+00 -0.1592755E-09
 -0.5045727E-02  0.0000000E+00 -0.5050505E-02  0.5848308E-15  0.0000000E+00 -0.1592745E-09
 -0.5043261E-02  0.0000000E+00 -0.5050505E-02  0.7947701E-15  0.0000000E+00 -0.1592731E-09
 -0.5038714E-02  0.0000000E+00 -0.5050505E-02  0.1274631E-14  0.0000000E+00 -0.1592710E-09
 -0.5032318E-02  0.0000000E+00 -0.5050505E-02  0.7272896E-15  0.0000000E+00 -0.1592690E-09
 -0.5022454E-02  0.0000000E+00 -0.5050505E-02  0.8772463E-15  0.0000000E+00 -0.1592674E-09
 -0.5012589E-02  0.0000000E+00 -0.5050505E-02  0.6673070E-15  0.0000000E+00 -0.1592659E-09
 -0.5002725E-02  0.0000000E+00 -0.5050505E-02  0.1649523E-15  0.0000000E+00 -0.1592651E-09
 -0.4992860E-02  0.0000000E+00 -0.5050505E-02  0.5773330E-15  0.0000000E+00 -0.1592643E-09
 -0.4976523E-02  0.0000000E+00 -0.5050505E-02 -0.2099393E-15  0.0000000E+00 -0.1592639E-09
 -0.4956794E-02  0.0000000E+00 -0.5050505E-02  0.3299046E-15  0.0000000E+00 -0.1592638E-09
 -0.4937066E-02  0.0000000E+00 -0.5050505E-02  0.1949436E-15  0.0000000E+00 -0.1592633E-09
 -0.4906239E-02  0.0000000E+00 -0.5050505E-02 -0.2399306E-15  0.0000000E+00 -0.1592633E-09
 -0.4866782E-02  0.0000000E+00 -0.5050505E-02  0.2999133E-16  0.0000000E+00 -0.1592636E-09
 -0.4827325E-02  0.0000000E+00 -0.5050505E-02 -0.5998265E-16  0.0000000E+00 -0.1592636E-09
 -0.4769372E-02  0.0000000E+00 -0.5050505E-02  0.1349610E-15  0.0000000E+00 -0.1592635E-09
 -0.4690458E-02  0.0000000E+00 -0.5050505E-02 -0.1499566E-15  0.0000000E+00 -0.1592635E-09
 -0.4611543E-02  0.0000000E+00 -0.5050505E-02 -0.6748048E-16  0.0000000E+00 -0.1592637E-09
 -0.4503035E-02  0.0000000E+00 -0.5050505E-02  0.6748048E-16  0.0000000E+00 -0.1592637E-09
 -0.4345206E-02  0.0000000E+00 -0.5050505E-02  0.7497831E-16  0.0000000E+00 -0.1592636E-09
 -0.4187378E-02  0.0000000E+00 -0.5050505E-02  0.3748916E-16  0.0000000E+00 -0.1592635E-09
 -0.3985156E-02  0.0000000E+00 -0.5050505E-02 -0.7497831E-17  0.0000000E+00 -0.1592635E-09
 -0.3669499E-02  0.0000000E+00 -0.5050505E-02  0.7497831E-17  0.0000000E+00 -0.1592635E-09
 -0.3353842E-02  0.0000000E+00 -0.5050505E-02 -0.7497831E-17  0.0000000E+00 -0.1592635E-09
 -0.2978990E-02  0.0000000E+00 -0.5050505E-02  0.2249349E-16  0.0000000E+00 -0.1592634E-09
 -0.2347676E-02  0.0000000E+00 -0.5050505E-02 -0.2249349E-16  0.0000000E+00 -0.1592634E-09
 -0.1716362E-02  0.0000000E+00 -0.5050505E-02 -0.7497831E-17  0.0000000E+00 -0.1592635E-09
 -0.1025842E-02  0.0000000E+00 -0.5050505E-02 -0.1499566E-16  0.0000000E+00 -0.1592635E-09
  0.2367855E-03  0.0000000E+00 -0.5050505E-02  0.7497831E-17  0.0000000E+00 -0.1592635E-09
  0.1499413E-02  0.0000000E+00 -0.5050505E-02 -0.3748916E-16  0.0000000E+00 -0.1592635E-09
  0.2762042E-02  0.0000000E+00 -0.5050505E-02 -0.1499566E-16  0.0000000E+00 -0.1592636E-09
 -0.5050505E-02  0.0000000E+00 -0.5050505E-02 -0.3748916E-16  0.0000000E+00 -0.1592636E-09
 -0.5050505E-02  0.0000000E+00 -0.5050505E-02 -0.2999133E-16  0.0000000E+00 -0.1592637E-09
 -0.5050505E-02  0.0000000E+00 -0.5050505E-02  0.9747181E-16  0.0000000E+00 -0.1592636E-09
 -0.5050505E-02  0.0000000E+00 -0.5050505E-02 -0.4498699E-16  0.0000000E+00 -0.1592636E-09
 -0.5050505E-02  0.0000000E+00 -0.5050505E-02 -0.7497831E-16  0.0000000E+00 -0.1592637E-09
 -0.5050505E-02  0.0000000E+00 -0.5050505E-02  0.7497831E-16  0.0000000E+00 -0.1592637E-09
 -0.5050505E-02  0.0000000E+00 -0.5050505E-02  0.7497831E-16  0.0000000E+00 -0.1592636E-09
 -0.5050504E-02  0.0000000E+00 -0.5050505E-02  0.2999133E-16  0.0000000E+00 -0.1592634E-09
 -0.5050501E-02  0.0000000E+00 -0.5050505E-02 -0.1049696E-15  0.0000000E+00 -0.1592635E-09
 -0.5050495E-02  0.0000000E+00 -0.5050505E-02  0.5998265E-16  0.0000000E+00 -0.1592636E-09
 -0.5050482E-02  0.0000000E+00 -0.5050505E-02  0.6748048E-16  0.0000000E+00 -0.1592634E-09
 -0.5050449E-02  0.0000000E+00 -0.5050505E-02 -0.2174371E-15  0.0000000E+00 -0.1592636E-09
 -0.5050376E-02  0.0000000E+00 -0.5050505E-02  0.1049696E-15  0.0000000E+00 -0.1592637E-09
 -0.5050299E-02  0.0000000E+00 -0.5050505E-02 -0.1349610E-15  0.0000000E+00 -0.1592637E-09
 -0.5050178E-02  0.0000000E+00 -0.5050505E-02  0.8247615E-16  0.0000000E+00 -0.1592638E-09
 -0.5050018E-02  0.0000000E+00 -0.5050505E-02  0.8247615E-16  0.0000000E+00 -0.1592636E-09
 -0.5049710E-02  0.0000000E+00 -0.5050505E-02 -0.4498699E-15  0.0000000E+00 -0.1592640E-09
 -0.5049253E-02  0.0000000E+00 -0.5050505E-02  0.1349610E-15  0.0000000E+00 -0.1592643E-09
 -0.5048636E-02  0.0000000E+00 -0.5050505E-02 -0.1649523E-15  0.0000000E+00 -0.1592643E-09
 -0.5047442E-02  0.0000000E+00 -0.5050505E-02 -0.1499566E-15  0.0000000E+00 -0.1592646E-09
 -0.5045727E-02  0.0000000E+00 -0.5050505E-02 -0.3748916E-15  0.0000000E+00 -0.1592652E-09
 -0.5043261E-02  0.0000000E+00 -0.5050505E-02 -0.3149089E-15  0.0000000E+00 -0.1592659E-09
 -0.5038714E-02  0.0000000E+00 -0.5050505E-02 -0.1424588E-15  0.0000000E+00 -0.1592663E-09
 -0.5032318E-02  0.0000000E+00 -0.5050505E-02 -0.7647788E-15  0.0000000E+00 -0.1592672E-09
 -0.5022454E-02  0.0000000E+00 -0.5050505E-02 -0.1274631E-15  0.0000000E+00 -0.1592681E-09
 -0.5012589E-02  0.0000000E+00 -0.5050505E-02 -0.6823027E-15  0.0000000E+00 -0.1592689E-09
 -0.5002725E-02  0.0000000E+00 -0.5050505E-02 -0.6823027E-15  0.0000000E+00 -0.1592703E-09
 -0.4992860E-02  0.0000000E+00 -0.5050505E-02 -0.9972116E-15  0.0000000E+00 -0.1592720E-09
 -0.4976523E-02  0.0000000E+00 -0.5050505E-02 -0.1304623E-14  0.0000000E+00 -0.1592743E-09
 -0.4956794E-02  0.0000000E+00 -0.5050505E-02 -0.1739497E-14  0.0000000E+00 -0.1592773E-09
 -0.4937066E-02  0.0000000E+00 -0.5050505E-02 -0.2106891E-14  0.0000000E+00 -0.1592812E-09
 -0.4906239E-02  0.0000000E+00 -0.5050505E-02 -0.2909159E-14  0.0000000E+00 -0.1592862E-09
 -0.4866782E-02  0.0000000E+00 -0.5050505E-02 -0.3853885E-14  0.0000000E+00 -0.1592929E-09
 -0.4827325E-02  0.0000000E+00 -0.5050505E-02 -0.4911080E-14  0.0000000E+00 -0.1593017E-09
 -0.4769372E-02  0.0000000E+00 -0.5050505E-02 -0.6275685E-14  0.0000000E+00 -0.1593129E-09
 -0.4690458E-02  0.0000000E+00 -0.5050505E-02 -0.7872723E-14  0.0000000E+00 -0.1593270E-09
 -0.4611543E-02  0.0000000E+00 -0.5050505E-02 -0.1004709E-13  0.0000000E+00 -0.1593450E-09
 -0.4503035E-02  0.0000000E+00 -0.5050505E-02 -0.1285878E-13  0.0000000E+00 -0.1593679E-09
 -0.4345206E-02  0.0000000E+00 -0.5050505E-02 -0.1678764E-13  0.0000000E+00 -0.1593975E-09
 -0.4187378E-02  0.0000000E+00 -0.5050505E-02 -0.2244851E-13  0.0000000E+00 -0.1594368E-09
 -0.3985156E-02  0.0000000E+00 -0.5050505E-02 -0.3086857E-13  0.0000000E+00 -0.1594901E-09
 -0.3669499E-02  0.0000000E+00 -0.5050505E-02 -0.4403476E-13  0.0000000E+00 -0.1595650E-09
 -0.3353842E-02  0.0000000E+00 -0.5050505E-02 -0.6574848E-13  0.0000000E+00 -0.1596748E-09
 -0.2978990E-02  0.0000000E+00 -0.5050505E-02 -0.1036725E-12  0.0000000E+00 -0.1598442E-09
 -0.2347676E-02  0.0000000E+00 -0.5050505E-02 -0.1742796E-12  0.0000000E+00 -0.1601221E-09
 -0.1716362E-02  0.0000000E+00 -0.5050505E-02 -0.3161461E-12  0.0000000E+00 -0.1606126E-09
 -0.1025842E-02  0.0000000E+00 -0.5050505E-02 -0.6297054E-12  0.0000000E+00 -0.1615584E-09
  0.2367855E-03  0.0000000E+00 -0.5050505E-02 -0.1413896E-11  0.0000000E+00 -0.1636020E-09
  0.1499413E-02  0.0000000E+00 -0.5050505E-02 -0.3666170E-11  0.0000000E+00 -0.1686821E-09
  0.5287294E-02  0.0000000E+00 -0.5050505E-02 -0.5973301E-10  0.0000000E+00 -0.1349011E-09
 -0.5050505E-02  0.0000000E+00 -0.5050505E-02 -0.1264134E-13  0.0000000E+00 -0.1590799E-09
 -0.5050505E-02  0.0000000E+00 -0.5050505E-02 -0.1161570E-13  0.0000000E+00 -0.1590446E-09
 -0.5050505E-02  0.0000000E+00 -0.5050505E-02 -0.4821061E-13  0.0000000E+00 -0.1590350E-09
 -0.5050505E-02  0.0000000E+00 -0.5050505E-02 -0.4368971E-13  0.0000000E+00 -0.1590735E-09
 -0.5050505E-02  0.0000000E+00 -0.5050505E-02  0.1697203E-14  0.0000000E+00 -0.1590963E-09
 -0.5050505E-02  0.0000000E+00 -0.5050505E-02 -0.5287115E-13  0.0000000E+00 -0.1590926E-09
 -0.5050504E-02  0.0000000E+00 -0.5050505E-02 -0.4254958E-13  0.0000000E+00 -0.1591050E-09
 -0.5050501E-02  0.0000000E+00 -0.5050505E-02 -0.1759757E-14  0.0000000E+00 -0.1591175E-09
 -0.5050495E-02  0.0000000E+00 -0.5050505E-02  0.1709947E-13  0.0000000E+00 -0.1591140E-09
 -0.5050482E-02  0.0000000E+00 -0.5050505E-02  0.2613520E-13  0.0000000E+00 -0.1591021E-09
 -0.5050449E-02  0.0000000E+00 -0.5050505E-02  0.2937257E-13  0.0000000E+00 -0.1590890E-09
 -0.5050376E-02  0.0000000E+00 -0.5050505E-02  0.2333358E-13  0.0000000E+00 -0.1590766E-09
 -0.5050299E-02  0.0000000E+00 -0.5050505E-02  0.1227335E-13  0.0000000E+00 -0.1590669E-09
 -0.5050178E-02  0.0000000E+00 -0.5050505E-02  0.2985946E-14  0.0000000E+00 -0.1590614E-09
 -0.5050018E-02  0.0000000E+00 -0.5050505E-02 -0.1847078E-14  0.0000000E+00 -0.1590596E-09
 -0.5049710E-02  0.0000000E+00 -0.5050505E-02 -0.2877102E-14  0.0000000E+00 -0.1590600E-09
 -0.5049253E-02  0.0000000E+00 -0.5050505E-02 -0.2151708E-14  0.0000000E+00 -0.1590611E-09
 -0.5048636E-02  0.0000000E+00 -0.5050505E-02 -0.2538731E-15  0.0000000E+00 -0.1590618E-09
 -0.5047442E-02  0.0000000E+00 -0.5050505E-02  0.1381749E-14  0.0000000E+00 -0.1590614E-09
 -0.5045727E-02  0.0000000E+00 -0.5050505E-02  0.1897035E-14  0.0000000E+00 -0.1590601E-09
 -0.5043261E-02  0.0000000E+00 -0.5050505E-02  0.2047328E-14  0.0000000E+00 -0.1590589E-09
 -0.5038714E-02  0.0000000E+00 -0.5050505E-02  0.3600811E-14  0.0000000E+00 -0.1590574E-09
 -0.5032318E-02  0.0000000E+00 -0.5050505E-02  0.2233342E-14  0.0000000E+00 -0.1590556E-09
 -0.5022454E-02  0.0000000E+00 -0.5050505E-02  0.2465311E-14  0.0000000E+00 -0.1590541E-09
 -0.5012589E-02  0.0000000E+00 -0.5050505E-02  0.2136081E-14  0.0000000E+00 -0.1590525E-09
 -0.5002725E-02  0.0000000E+00 -0.5050505E-02  0.4184462E-15  0.0000000E+00 -0.1590516E-09
 -0.4992860E-02  0.0000000E+00 -0.5050505E-02  0.1695689E-14  0.0000000E+00 -0.1590510E-09
 -0.4976523E-02  0.0000000E+00 -0.5050505E-02 -0.5007117E-15  0.0000000E+00 -0.1590505E-09
 -0.4956794E-02  0.0000000E+00 -0.5050505E-02  0.5908542E-15  0.0000000E+00 -0.1590507E-09
 -0.4937066E-02  0.0000000E+00 -0.5050505E-02  0.7690328E-15  0.0000000E+00 -0.1590504E-09
 -0.4906239E-02  0.0000000E+00 -0.5050505E-02 -0.5083359E-15  0.0000000E+00 -0.1590500E-09
 -0.4866782E-02  0.0000000E+00 -0.5050505E-02  0.1269155E-15  0.0000000E+00 -0.1590500E-09
 -0.4827325E-02  0.0000000E+00 -0.5050505E-02 -0.3209323E-15  0.0000000E+00 -0.1590501E-09
 -0.4769372E-02  0.0000000E+00 -0.5050505E-02  0.3288093E-15  0.0000000E+00 -0.1590503E-09
 -0.4690458E-02  0.0000000E+00 -0.5050505E-02 -0.2990707E-15  0.0000000E+00 -0.1590502E-09
 -0.4611543E-02  0.0000000E+00 -0.5050505E-02 -0.1420375E-15  0.0000000E+00 -0.1590502E-09
 -0.4503035E-02  0.0000000E+00 -0.5050505E-02  0.1047590E-15  0.0000000E+00 -0.1590503E-09
 -0.4345206E-02  0.0000000E+00 -0.5050505E-02  0.1942696E-15  0.0000000E+00 -0.1590502E-09
 -0.4187378E-02  0.0000000E+00 -0.5050505E-02  0.1269576E-15  0.0000000E+00 -0.1590501E-09
 -0.3985156E-02  0.0000000E+00 -0.5050505E-02 -0.2240924E-16  0.0000000E+00 -0.1590501E-09
 -0.3669499E-02  0.0000000E+00 -0.5050505E-02 -0.3723639E-16  0.0000000E+00 -0.1590502E-09
 -0.3353842E-02  0.0000000E+00 -0.5050505E-02 -0.7497831E-17  0.0000000E+00 -0.1590502E-09
 -0.2978990E-02  0.0000000E+00 -0.5050505E-02  0.9705053E-16  0.0000000E+00 -0.1590501E-09
 -0.2347676E-02  0.0000000E+00 -0.5050505E-02 -0.5977201E-16  0.0000000E+00 -0.1590501E-09
 -0.1716362E-02  0.0000000E+00 -0.5050505E-02 -0.1495353E-16  0.0000000E+00 -0.1590501E-09
 -0.1025842E-02  0.0000000E+00 -0.5050505E-02 -0.7464129E-16  0.0000000E+00 -0.1590502E-09
  0.2367855E-03  0.0000000E+00 -0.5050505E-02  0.5968776E-16  0.0000000E+00 -0.1590502E-09
  0.1499413E-02  0.0000000E+00 -0.5050505E-02 -0.1120462E-15  0.0000000E+00 -0.1590502E-09
  0.2762042E-02  0.0000000E+00 -0.5050505E-02 -0.3736277E-16  0.0000000E+00 -0.1590502E-09
 -0.5050505E-02  0.0000000E+00 -0.5050505E-02 -0.3748916E-16  0.0000000E+00 -0.1590502E-09
 -0.5050505E-02  0.0000000E+00 -0.5050505E-02 -0.1940168E-15  0.0000000E+00 -0.1590503E-09
 -0.5050505E-02  0.0000000E+00 -0.5050505E-02  0.2764087E-15  0.0000000E+00 -0.1590503E-09
 -0.5050505E-02  0.0000000E+00 -0.5050505E-02 -0.3753128E-16  0.0000000E+00 -0.1590502E-09
 -0.5050505E-02  0.0000000E+00 -0.5050505E-02 -0.2166367E-15  0.0000000E+00 -0.1590502E-09
 -0.5050505E-02  0.0000000E+00 -0.5050505E-02  0.1793582E-15  0.0000000E+00 -0.1590502E-09
 -0.5050505E-02  0.0000000E+00 -0.5050505E-02  0.1122568E-15  0.0000000E+00 -0.1590502E-09
 -0.5050504E-02  0.0000000E+00 -0.5050505E-02  0.2014725E-15  0.0000000E+00 -0.1590501E-09
 -0.5050501E-02  0.0000000E+00 -0.5050505E-02 -0.2988179E-15  0.0000000E+00 -0.1590501E-09
 -0.5050495E-02  0.0000000E+00 -0.5050505E-02  0.4507124E-16  0.0000000E+00 -0.1590503E-09
 -0.5050482E-02  0.0000000E+00 -0.5050505E-02  0.2836959E-15  0.0000000E+00 -0.1590502E-09
 -0.5050449E-02  0.0000000E+00 -0.5050505E-02 -0.5380324E-15  0.0000000E+00 -0.1590501E-09
 -0.5050376E-02  0.0000000E+00 -0.5050505E-02  0.1720710E-15  0.0000000E+00 -0.1590503E-09
 -0.5050299E-02  0.0000000E+00 -0.5050505E-02 -0.3288093E-15  0.0000000E+00 -0.1590504E-09
 -0.5050178E-02  0.0000000E+00 -0.5050505E-02  0.2283052E-16  0.0000000E+00 -0.1590506E-09
 -0.5050018E-02  0.0000000E+00 -0.5050505E-02  0.5447298E-15  0.0000000E+00 -0.1590503E-09
 -0.5049710E-02  0.0000000E+00 -0.5050505E-02 -0.1255086E-14  0.0000000E+00 -0.1590503E-09
 -0.5049253E-02  0.0000000E+00 -0.5050505E-02  0.1573281E-15  0.0000000E+00 -0.1590508E-09
 -0.5048636E-02  0.0000000E+00 -0.5050505E-02 -0.5079146E-15  0.0000000E+00 -0.1590511E-09
 -0.5047442E-02  0.0000000E+00 -0.5050505E-02 -0.4034505E-15  0.0000000E+00 -0.1590514E-09
 -0.5045727E-02  0.0000000E+00 -0.5050505E-02 -0.9489807E-15  0.0000000E+00 -0.1590517E-09
 -0.5043261E-02  0.0000000E+00 -0.5050505E-02 -0.1082846E-14  0.0000000E+00 -0.1590523E-09
 -0.5038714E-02  0.0000000E+00 -0.5050505E-02 -0.2692058E-15  0.0000000E+00 -0.1590528E-09
 -0.5032318E-02  0.0000000E+00 -0.5050505E-02 -0.2233552E-14  0.0000000E+00 -0.1590535E-09
 -0.5022454E-02  0.0000000E+00 -0.5050505E-02 -0.5673496E-15  0.0000000E+00 -0.1590545E-09
 -0.5012589E-02  0.0000000E+00 -0.5050505E-02 -0.1949772E-14  0.0000000E+00 -0.1590554E-09
 -0.5002725E-02  0.0000000E+00 -0.5050505E-02 -0.1979595E-14  0.0000000E+00 -0.1590566E-09
 -0.4992860E-02  0.0000000E+00 -0.5050505E-02 -0.2838770E-14  0.0000000E+00 -0.1590581E-09
 -0.4976523E-02  0.0000000E+00 -0.5050505E-02 -0.3787372E-14  0.0000000E+00 -0.1590601E-09
 -0.4956794E-02  0.0000000E+00 -0.5050505E-02 -0.5258589E-14  0.0000000E+00 -0.1590631E-09
 -0.4937066E-02  0.0000000E+00 -0.5050505E-02 -0.6334274E-14  0.0000000E+00 -0.1590670E-09
 -0.4906239E-02  0.0000000E+00 -0.5050505E-02 -0.8545670E-14  0.0000000E+00 -0.1590719E-09
 -0.4866782E-02  0.0000000E+00 -0.5050505E-02 -0.1130959E-13  0.0000000E+00 -0.1590782E-09
 -0.4827325E-02  0.0000000E+00 -0.5050505E-02 -0.1437982E-13  0.0000000E+00 -0.1590864E-09
 -0.4769372E-02  0.0000000E+00 -0.5050505E-02 -0.1839120E-13  0.0000000E+00 -0.1590969E-09
 -0.4690458E-02  0.0000000E+00 -0.5050505E-02 -0.2302271E-13  0.0000000E+00 -0.1591101E-09
 -0.4611543E-02  0.0000000E+00 -0.5050505E-02 -0.2928281E-13  0.0000000E+00 -0.1591267E-09
 -0.4503035E-02  0.0000000E+00 -0.5050505E-02 -0.3732840E-13  0.0000000E+00 -0.1591476E-09
 -0.4345206E-02  0.0000000E+00 -0.5050505E-02 -0.4837000E-13  0.0000000E+00 -0.1591742E-09
 -0.4187378E-02  0.0000000E+00 -0.5050505E-02 -0.6420790E-13  0.0000000E+00 -0.1592085E-09
 -0.3985156E-02  0.0000000E+00 -0.5050505E-02 -0.8765866E-13  0.0000000E+00 -0.1592540E-09
 -0.3669499E-02  0.0000000E+00 -0.5050505E-02 -0.1238555E-12  0.0000000E+00 -0.1593161E-09
 -0.3353842E-02  0.0000000E+00 -0.5050505E-02 -0.1820873E-12  0.0000000E+00 -0.1594031E-09
 -0.2978990E-02  0.0000000E+00 -0.5050505E-02 -0.2798955E-12  0.0000000E+00 -0.1595272E-09
 -0.2347676E-02  0.0000000E+00 -0.5050505E-02 -0.4525414E-12  0.0000000E+00 -0.1597053E-09
 -0.1716362E-02  0.0000000E+00 -0.5050505E-02 -0.7760064E-12  0.0000000E+00 -0.1599558E-09
 -0.1025842E-02  0.0000000E+00 -0.5050505E-02 -0.1418541E-11  0.0000000E+00 -0.1602639E-09
  0.2367855E-03  0.0000000E+00 -0.5050505E-02 -0.2780169E-11  0.0000000E+00 -0.1603869E-09
  0.1499413E-02  0.0000000E+00 -0.5050505E-02 -0.5912200E-11  0.0000000E+00 -0.1589477E-09
  0.5287294E-02  0.0000000E+00 -0.5050505E-02 -0.1375798E-10  0.0000000E+00 -0.1493564E-09
 -0.5050505E-02  0.0000000E+00 -0.5050505E-02  0.1354521E-13  0.0000000E+00 -0.1588926E-09
 -0.5050505E-02  0.0000000E+00 -0.5050505E-02  0.4830313E-13  0.0000000E+00 -0.1588419E-09
 -0.5050505E-02  0.0000000E+00 -0.5050505E-02 -0.2634260E-13  0.0000000E+00 -0.1587701E-09
 -0.5050505E-02  0.0000000E+00 -0.5050505E-02 -0.9943600E-13  0.0000000E+00 -0.1587660E-09
 -0.5050505E-02  0.0000000E+00 -0.5050505E-02 -0.1974684E-14  0.0000000E+00 -0.1588029E-09
 -0.5050505E-02  0.0000000E+00 -0.5050505E-02 -0.4234482E-13  0.0000000E+00 -0.1588000E-09
 -0.5050504E-02  0.0000000E+00 -0.5050505E-02 -0.4913301E-13  0.0000000E+00 -0.1587841E-09
 -0.5050501E-02  0.0000000E+00 -0.5050505E-02  0.1905162E-15  0.0000000E+00 -0.1587765E-09
 -0.5050495E-02  0.0000000E+00 -0.5050505E-02  0.2813900E-13  0.0000000E+00 -0.1587670E-09
 -0.5050482E-02  0.0000000E+00 -0.5050505E-02  0.3702753E-13  0.0000000E+00 -0.1587566E-09
 -0.5050449E-02  0.0000000E+00 -0.5050505E-02  0.3861580E-13  0.0000000E+00 -0.1587493E-09
 -0.5050376E-02  0.0000000E+00 -0.5050505E-02  0.3158316E-13  0.0000000E+00 -0.1587439E-09
 -0.5050299E-02  0.0000000E+00 -0.5050505E-02  0.1864669E-13  0.0000000E+00 -0.1587388E-09
 -0.5050178E-02  0.0000000E+00 -0.5050505E-02  0.6589208E-14  0.0000000E+00 -0.1587343E-09
 -0.5050018E-02  0.0000000E+00 -0.5050505E-02 -0.6498588E-15  0.0000000E+00 -0.1587313E-09
 -0.5049710E-02  0.0000000E+00 -0.5050505E-02 -0.2967634E-14  0.0000000E+00 -0.1587298E-09
 -0.5049253E-02  0.0000000E+00 -0.5050505E-02 -0.2713680E-14  0.0000000E+00 -0.1587294E-09
 -0.5048636E-02  0.0000000E+00 -0.5050505E-02 -0.5422593E-15  0.0000000E+00 -0.1587296E-09
 -0.5047442E-02  0.0000000E+00 -0.5050505E-02  0.2325858E-14  0.0000000E+00 -0.1587293E-09
 -0.5045727E-02  0.0000000E+00 -0.5050505E-02  0.3588268E-14  0.0000000E+00 -0.1587279E-09
 -0.5043261E-02  0.0000000E+00 -0.5050505E-02  0.2942925E-14  0.0000000E+00 -0.1587265E-09
 -0.5038714E-02  0.0000000E+00 -0.5050505E-02  0.5410358E-14  0.0000000E+00 -0.1587253E-09
 -0.5032318E-02  0.0000000E+00 -0.5050505E-02  0.3626425E-14  0.0000000E+00 -0.1587239E-09
 -0.5022454E-02  0.0000000E+00 -0.5050505E-02  0.3523090E-14  0.0000000E+00 -0.1587229E-09
 -0.5012589E-02  0.0000000E+00 -0.5050505E-02  0.3678113E-14  0.0000000E+00 -0.1587218E-09
 -0.5002725E-02  0.0000000E+00 -0.5050505E-02  0.7205690E-15  0.0000000E+00 -0.1587208E-09
 -0.4992860E-02  0.0000000E+00 -0.5050505E-02  0.2712342E-14  0.0000000E+00 -0.1587201E-09
 -0.4976523E-02  0.0000000E+00 -0.5050505E-02 -0.2759447E-15  0.0000000E+00 -0.1587193E-09
 -0.4956794E-02  0.0000000E+00 -0.5050505E-02  0.1274996E-15  0.0000000E+00 -0.1587194E-09
 -0.4937066E-02  0.0000000E+00 -0.5050505E-02  0.1434100E-14  0.0000000E+00 -0.1587195E-09
 -0.4906239E-02  0.0000000E+00 -0.5050505E-02 -0.4463387E-15  0.0000000E+00 -0.1587192E-09
 -0.4866782E-02  0.0000000E+00 -0.5050505E-02  0.3415825E-15  0.0000000E+00 -0.1587189E-09
 -0.4827325E-02  0.0000000E+00 -0.5050505E-02 -0.6612997E-15  0.0000000E+00 -0.1587189E-09
 -0.4769372E-02  0.0000000E+00 -0.5050505E-02  0.3643678E-15  0.0000000E+00 -0.1587191E-09
 -0.4690458E-02  0.0000000E+00 -0.5050505E-02 -0.2973919E-15  0.0000000E+00 -0.1587191E-09
 -0.4611543E-02  0.0000000E+00 -0.5050505E-02 -0.2265980E-16  0.0000000E+00 -0.1587190E-09
 -0.4503035E-02  0.0000000E+00 -0.5050505E-02 -0.4427428E-16  0.0000000E+00 -0.1587190E-09
 -0.4345206E-02  0.0000000E+00 -0.5050505E-02  0.2453274E-15  0.0000000E+00 -0.1587191E-09
 -0.4187378E-02  0.0000000E+00 -0.5050505E-02  0.2229185E-15  0.0000000E+00 -0.1587190E-09
 -0.3985156E-02  0.0000000E+00 -0.5050505E-02  0.2957193E-16  0.0000000E+00 -0.1587189E-09
 -0.3669499E-02  0.0000000E+00 -0.5050505E-02 -0.1337009E-15  0.0000000E+00 -0.1587189E-09
 -0.3353842E-02  0.0000000E+00 -0.5050505E-02 -0.1112084E-15  0.0000000E+00 -0.1587191E-09
 -0.2978990E-02  0.0000000E+00 -0.5050505E-02  0.2450765E-15  0.0000000E+00 -0.1587191E-09
 -0.2347676E-02  0.0000000E+00 -0.5050505E-02 -0.1040035E-15  0.0000000E+00 -0.1587190E-09
 -0.1716362E-02  0.0000000E+00 -0.5050505E-02  0.5185542E-16  0.0000000E+00 -0.1587190E-09
 -0.1025842E-02  0.0000000E+00 -0.5050505E-02 -0.1708540E-15  0.0000000E+00 -0.1587190E-09
  0.2367855E-03  0.0000000E+00 -0.5050505E-02  0.8925938E-16  0.0000000E+00 -0.1587190E-09
  0.1499413E-02  0.0000000E+00 -0.5050505E-02 -0.1486959E-15  0.0000000E+00 -0.1587190E-09
  0.2762042E-02  0.0000000E+00 -0.5050505E-02 -0.5943656E-16  0.0000000E+00 -0.1587191E-09
 -0.5050505E-02  0.0000000E+00 -0.5050505E-02  0.8896668E-16  0.0000000E+00 -0.1587190E-09
 -0.5050505E-02  0.0000000E+00 -0.5050505E-02 -0.4383394E-15  0.0000000E+00 -0.1587190E-09
 -0.5050505E-02  0.0000000E+00 -0.5050505E-02  0.3049730E-15  0.0000000E+00 -0.1587192E-09
 -0.5050505E-02  0.0000000E+00 -0.5050505E-02  0.1705613E-15  0.0000000E+00 -0.1587191E-09
 -0.5050505E-02  0.0000000E+00 -0.5050505E-02 -0.2899362E-15  0.0000000E+00 -0.1587189E-09
 -0.5050505E-02  0.0000000E+00 -0.5050505E-02  0.2007604E-15  0.0000000E+00 -0.1587189E-09
 -0.5050505E-02  0.0000000E+00 -0.5050505E-02 -0.3686039E-16  0.0000000E+00 -0.1587190E-09
 -0.5050504E-02  0.0000000E+00 -0.5050505E-02  0.4457951E-15  0.0000000E+00 -0.1587191E-09
 -0.5050501E-02  0.0000000E+00 -0.5050505E-02 -0.3421261E-15  0.0000000E+00 -0.1587189E-09
 -0.5050495E-02  0.0000000E+00 -0.5050505E-02 -0.2002587E-15  0.0000000E+00 -0.1587190E-09
 -0.5050482E-02  0.0000000E+00 -0.5050505E-02  0.4460460E-15  0.0000000E+00 -0.1587192E-09
 -0.5050449E-02  0.0000000E+00 -0.5050505E-02 -0.4911147E-15  0.0000000E+00 -0.1587190E-09
 -0.5050376E-02  0.0000000E+00 -0.5050505E-02  0.5968744E-16  0.0000000E+00 -0.1587190E-09
 -0.5050299E-02  0.0000000E+00 -0.5050505E-02 -0.3272983E-15  0.0000000E+00 -0.1587190E-09
 -0.5050178E-02  0.0000000E+00 -0.5050505E-02 -0.5193068E-15  0.0000000E+00 -0.1587193E-09
 -0.5050018E-02  0.0000000E+00 -0.5050505E-02  0.1225884E-14  0.0000000E+00 -0.1587194E-09
 -0.5049710E-02  0.0000000E+00 -0.5050505E-02 -0.1672641E-14  0.0000000E+00 -0.1587192E-09
 -0.5049253E-02  0.0000000E+00 -0.5050505E-02 -0.2000496E-15  0.0000000E+00 -0.1587195E-09
 -0.5048636E-02  0.0000000E+00 -0.5050505E-02 -0.7952097E-15  0.0000000E+00 -0.1587198E-09
 -0.5047442E-02  0.0000000E+00 -0.5050505E-02 -0.7502246E-15  0.0000000E+00 -0.1587202E-09
 -0.5045727E-02  0.0000000E+00 -0.5050505E-02 -0.1174614E-14  0.0000000E+00 -0.1587205E-09
 -0.5043261E-02  0.0000000E+00 -0.5050505E-02 -0.1961574E-14  0.0000000E+00 -0.1587209E-09
 -0.5038714E-02  0.0000000E+00 -0.5050505E-02 -0.2082998E-15  0.0000000E+00 -0.1587213E-09
 -0.5032318E-02  0.0000000E+00 -0.5050505E-02 -0.3433454E-14  0.0000000E+00 -0.1587218E-09
 -0.5022454E-02  0.0000000E+00 -0.5050505E-02 -0.1262828E-14  0.0000000E+00 -0.1587227E-09
 -0.5012589E-02  0.0000000E+00 -0.5050505E-02 -0.3150598E-14  0.0000000E+00 -0.1587237E-09
 -0.5002725E-02  0.0000000E+00 -0.5050505E-02 -0.3299043E-14  0.0000000E+00 -0.1587250E-09
 -0.4992860E-02  0.0000000E+00 -0.5050505E-02 -0.4325212E-14  0.0000000E+00 -0.1587264E-09
 -0.4976523E-02  0.0000000E+00 -0.5050505E-02 -0.5789344E-14  0.0000000E+00 -0.1587279E-09
 -0.4956794E-02  0.0000000E+00 -0.5050505E-02 -0.8575365E-14  0.0000000E+00 -0.1587302E-09
 -0.4937066E-02  0.0000000E+00 -0.5050505E-02 -0.1051436E-13  0.0000000E+00 -0.1587339E-09
 -0.4906239E-02  0.0000000E+00 -0.5050505E-02 -0.1377696E-13  0.0000000E+00 -0.1587385E-09
 -0.4866782E-02  0.0000000E+00 -0.5050505E-02 -0.1819843E-13  0.0000000E+00 -0.1587444E-09
 -0.4827325E-02  0.0000000E+00 -0.5050505E-02 -0.2293978E-13  0.0000000E+00 -0.1587518E-09
 -0.4769372E-02  0.0000000E+00 -0.5050505E-02 -0.2927126E-13  0.0000000E+00 -0.1587609E-09
 -0.4690458E-02  0.0000000E+00 -0.5050505E-02 -0.3639078E-13  0.0000000E+00 -0.1587722E-09
 -0.4611543E-02  0.0000000E+00 -0.5050505E-02 -0.4602951E-13  0.0000000E+00 -0.1587860E-09
 -0.4503035E-02  0.0000000E+00 -0.5050505E-02 -0.5827696E-13  0.0000000E+00 -0.1588032E-09
 -0.4345206E-02  0.0000000E+00 -0.5050505E-02 -0.7462741E-13  0.0000000E+00 -0.1588243E-09
 -0.4187378E-02  0.0000000E+00 -0.5050505E-02 -0.9779358E-13  0.0000000E+00 -0.1588505E-09
 -0.3985156E-02  0.0000000E+00 -0.5050505E-02 -0.1318112E-12  0.0000000E+00 -0.1588835E-09
 -0.3669499E-02  0.0000000E+00 -0.5050505E-02 -0.1834818E-12  0.0000000E+00 -0.1589263E-09
 -0.3353842E-02  0.0000000E+00 -0.5050505E-02 -0.2635564E-12  0.0000000E+00 -0.1589822E-09
 -0.2978990E-02  0.0000000E+00 -0.5050505E-02 -0.3890165E-12  0.0000000E+00 -0.1590513E-09
 -0.2347676E-02  0.0000000E+00 -0.5050505E-02 -0.5875322E-12  0.0000000E+00 -0.1591214E-09
 -0.1716362E-02  0.0000000E+00 -0.5050505E-02 -0.9135237E-12  0.0000000E+00 -0.1591503E-09
 -0.1025842E-02  0.0000000E+00 -0.5050505E-02 -0.1463151E-11  0.0000000E+00 -0.1590366E-09
  0.2367855E-03  0.0000000E+00 -0.5050505E-02 -0.2341585E-11  0.0000000E+00 -0.1585432E-09
  0.1499413E-02  0.0000000E+00 -0.5050505E-02 -0.3440245E-11  0.0000000E+00 -0.1571207E-09
  0.5287294E-02  0.0000000E+00 -0.5050505E-02 -0.3515347E-11  0.0000000E+00 -0.1541079E-09
 -0.5050505E-02  0.0000000E+00 -0.5050505E-02  0.2760427E-13  0.0000000E+00 -0.1586115E-09
 -0.5050505E-02  0.0000000E+00 -0.5050505E-02  0.1012335E-12  0.0000000E+00 -0.1585948E-09
 -0.5050505E-02  0.0000000E+00 -0.5050505E-02  0.6771704E-13  0.0000000E+00 -0.1585196E-09
 -0.5050505E-02  0.0000000E+00 -0.5050505E-02 -0.1171862E-12  0.0000000E+00 -0.1584481E-09
 -0.5050505E-02  0.0000000E+00 -0.5050505E-02 -0.2528110E-13  0.0000000E+00 -0.1584528E-09
 -0.5050505E-02  0.0000000E+00 -0.5050505E-02 -0.2805580E-13  0.0000000E+00 -0.1584649E-09
 -0.5050504E-02  0.0000000E+00 -0.5050505E-02 -0.4539971E-13  0.0000000E+00 -0.1584633E-09
 -0.5050501E-02  0.0000000E+00 -0.5050505E-02  0.4751153E-14  0.0000000E+00 -0.1584629E-09
 -0.5050495E-02  0.0000000E+00 -0.5050505E-02  0.4014923E-13  0.0000000E+00 -0.1584557E-09
 -0.5050482E-02  0.0000000E+00 -0.5050505E-02  0.4774892E-13  0.0000000E+00 -0.1584429E-09
 -0.5050449E-02  0.0000000E+00 -0.5050505E-02  0.4466705E-13  0.0000000E+00 -0.1584330E-09
 -0.5050376E-02  0.0000000E+00 -0.5050505E-02  0.3571142E-13  0.0000000E+00 -0.1584279E-09
 -0.5050299E-02  0.0000000E+00 -0.5050505E-02  0.2269983E-13  0.0000000E+00 -0.1584246E-09
 -0.5050178E-02  0.0000000E+00 -0.5050505E-02  0.1019035E-13  0.0000000E+00 -0.1584213E-09
 -0.5050018E-02  0.0000000E+00 -0.5050505E-02  0.1969631E-14  0.0000000E+00 -0.1584180E-09
 -0.5049710E-02  0.0000000E+00 -0.5050505E-02 -0.1385775E-14  0.0000000E+00 -0.1584153E-09
 -0.5049253E-02  0.0000000E+00 -0.5050505E-02 -0.1784340E-14  0.0000000E+00 -0.1584132E-09
 -0.5048636E-02  0.0000000E+00 -0.5050505E-02 -0.6728795E-15  0.0000000E+00 -0.1584123E-09
 -0.5047442E-02  0.0000000E+00 -0.5050505E-02  0.2794482E-14  0.0000000E+00 -0.1584122E-09
 -0.5045727E-02  0.0000000E+00 -0.5050505E-02  0.5431447E-14  0.0000000E+00 -0.1584113E-09
 -0.5043261E-02  0.0000000E+00 -0.5050505E-02  0.3924201E-14  0.0000000E+00 -0.1584098E-09
 -0.5038714E-02  0.0000000E+00 -0.5050505E-02  0.6763000E-14  0.0000000E+00 -0.1584087E-09
 -0.5032318E-02  0.0000000E+00 -0.5050505E-02  0.4899763E-14  0.0000000E+00 -0.1584074E-09
 -0.5022454E-02  0.0000000E+00 -0.5050505E-02  0.3910826E-14  0.0000000E+00 -0.1584067E-09
 -0.5012589E-02  0.0000000E+00 -0.5050505E-02  0.4856027E-14  0.0000000E+00 -0.1584062E-09
 -0.5002725E-02  0.0000000E+00 -0.5050505E-02  0.1174824E-14  0.0000000E+00 -0.1584055E-09
 -0.4992860E-02  0.0000000E+00 -0.5050505E-02  0.3407594E-14  0.0000000E+00 -0.1584050E-09
 -0.4976523E-02  0.0000000E+00 -0.5050505E-02  0.8184182E-15  0.0000000E+00 -0.1584040E-09
 -0.4956794E-02  0.0000000E+00 -0.5050505E-02 -0.5536762E-15  0.0000000E+00 -0.1584035E-09
 -0.4937066E-02  0.0000000E+00 -0.5050505E-02  0.1737326E-14  0.0000000E+00 -0.1584037E-09