title = "dataset feddes"
variables = "x", "y", "z", "vx", "vy", "vz"
zone t = "velocities, solution time =  8.000E+00 days        " i =   99, j =   99, k =    1,  f=point
 -0.5050505E-02  0.0000000E+00 -0.5050505E-02  0.3201574E-14  0.0000000E+00 -0.1601841E-09
 -0.5050505E-02  0.0000000E+00 -0.5050505E-02  0.2871669E-14  0.0000000E+00 -0.1601780E-09
 -0.5050505E-02  0.0000000E+00 -0.5050505E-02  0.2264345E-14  0.0000000E+00 -0.1601729E-09
 -0.5050505E-02  0.0000000E+00 -0.5050505E-02  0.4221279E-14  0.0000000E+00 -0.1601664E-09
 -0.5050505E-02  0.0000000E+00 -0.5050505E-02  0.4821106E-14  0.0000000E+00 -0.1601573E-09
 -0.5050505E-02  0.0000000E+00 -0.5050505E-02  0.2931652E-14  0.0000000E+00 -0.1601496E-09
 -0.5050504E-02  0.0000000E+00 -0.5050505E-02  0.1829471E-14  0.0000000E+00 -0.1601448E-09
 -0.5050501E-02  0.0000000E+00 -0.5050505E-02 -0.4873590E-15  0.0000000E+00 -0.1601435E-09
 -0.5050495E-02  0.0000000E+00 -0.5050505E-02 -0.3269054E-14  0.0000000E+00 -0.1601472E-09
 -0.5050482E-02  0.0000000E+00 -0.5050505E-02 -0.4183790E-14  0.0000000E+00 -0.1601547E-09
 -0.5050449E-02  0.0000000E+00 -0.5050505E-02 -0.4183790E-14  0.0000000E+00 -0.1601631E-09
 -0.5050376E-02  0.0000000E+00 -0.5050505E-02 -0.3291548E-14  0.0000000E+00 -0.1601705E-09
 -0.5050299E-02  0.0000000E+00 -0.5050505E-02 -0.1454579E-14  0.0000000E+00 -0.1601753E-09
 -0.5050178E-02  0.0000000E+00 -0.5050505E-02  0.3374024E-15  0.0000000E+00 -0.1601764E-09
 -0.5050018E-02  0.0000000E+00 -0.5050505E-02  0.1199653E-14  0.0000000E+00 -0.1601749E-09
 -0.5049710E-02  0.0000000E+00 -0.5050505E-02  0.9297311E-15  0.0000000E+00 -0.1601727E-09
 -0.5049253E-02  0.0000000E+00 -0.5050505E-02  0.2249349E-16  0.0000000E+00 -0.1601718E-09
 -0.5048636E-02  0.0000000E+00 -0.5050505E-02 -0.8247615E-15  0.0000000E+00 -0.1601726E-09
 -0.5047442E-02  0.0000000E+00 -0.5050505E-02 -0.1244640E-14  0.0000000E+00 -0.1601746E-09
 -0.5045727E-02  0.0000000E+00 -0.5050505E-02 -0.1214649E-14  0.0000000E+00 -0.1601771E-09
 -0.5043261E-02  0.0000000E+00 -0.5050505E-02 -0.8622506E-15  0.0000000E+00 -0.1601792E-09
 -0.5038714E-02  0.0000000E+00 -0.5050505E-02 -0.4198786E-15  0.0000000E+00 -0.1601805E-09
 -0.5032318E-02  0.0000000E+00 -0.5050505E-02 -0.4498699E-16  0.0000000E+00 -0.1601809E-09
 -0.5022454E-02  0.0000000E+00 -0.5050505E-02  0.2174371E-15  0.0000000E+00 -0.1601808E-09
 -0.5012589E-02  0.0000000E+00 -0.5050505E-02  0.3598959E-15  0.0000000E+00 -0.1601802E-09
 -0.5002725E-02  0.0000000E+00 -0.5050505E-02  0.3898872E-15  0.0000000E+00 -0.1601794E-09
 -0.4992860E-02  0.0000000E+00 -0.5050505E-02  0.3673937E-15  0.0000000E+00 -0.1601787E-09
 -0.4976523E-02  0.0000000E+00 -0.5050505E-02  0.2774198E-15  0.0000000E+00 -0.1601780E-09
 -0.4956794E-02  0.0000000E+00 -0.5050505E-02  0.2249349E-15  0.0000000E+00 -0.1601775E-09
 -0.4937066E-02  0.0000000E+00 -0.5050505E-02  0.1724501E-15  0.0000000E+00 -0.1601771E-09
 -0.4906239E-02  0.0000000E+00 -0.5050505E-02  0.8997398E-16  0.0000000E+00 -0.1601769E-09
 -0.4866782E-02  0.0000000E+00 -0.5050505E-02  0.9747181E-16  0.0000000E+00 -0.1601767E-09
 -0.4827325E-02  0.0000000E+00 -0.5050505E-02  0.1124675E-15  0.0000000E+00 -0.1601765E-09
 -0.4769372E-02  0.0000000E+00 -0.5050505E-02  0.9747181E-16  0.0000000E+00 -0.1601763E-09
 -0.4690458E-02  0.0000000E+00 -0.5050505E-02  0.7497831E-16  0.0000000E+00 -0.1601761E-09
 -0.4611543E-02  0.0000000E+00 -0.5050505E-02  0.8247615E-16  0.0000000E+00 -0.1601759E-09
 -0.4503035E-02  0.0000000E+00 -0.5050505E-02  0.5998265E-16  0.0000000E+00 -0.1601758E-09
 -0.4345206E-02  0.0000000E+00 -0.5050505E-02  0.2249349E-16  0.0000000E+00 -0.1601757E-09
 -0.4187378E-02  0.0000000E+00 -0.5050505E-02  0.2999133E-16  0.0000000E+00 -0.1601756E-09
 -0.3985156E-02  0.0000000E+00 -0.5050505E-02  0.2999133E-16  0.0000000E+00 -0.1601756E-09
 -0.3669499E-02  0.0000000E+00 -0.5050505E-02  0.2249349E-16  0.0000000E+00 -0.1601755E-09
 -0.3353842E-02  0.0000000E+00 -0.5050505E-02  0.2999133E-16  0.0000000E+00 -0.1601755E-09
 -0.2978990E-02  0.0000000E+00 -0.5050505E-02  0.3748916E-16  0.0000000E+00 -0.1601754E-09
 -0.2347676E-02  0.0000000E+00 -0.5050505E-02  0.1499566E-16  0.0000000E+00 -0.1601754E-09
 -0.1716362E-02  0.0000000E+00 -0.5050505E-02  0.7497831E-17  0.0000000E+00 -0.1601753E-09
 -0.1025842E-02  0.0000000E+00 -0.5050505E-02  0.7497831E-17  0.0000000E+00 -0.1601753E-09
  0.2367855E-03  0.0000000E+00 -0.5050505E-02 -0.7497831E-17  0.0000000E+00 -0.1601753E-09
  0.1499413E-02  0.0000000E+00 -0.5050505E-02  0.7497831E-17  0.0000000E+00 -0.1601753E-09
  0.2762042E-02  0.0000000E+00 -0.5050505E-02  0.1499566E-16  0.0000000E+00 -0.1601753E-09
 -0.5050505E-02  0.0000000E+00 -0.5050505E-02  0.7497831E-17  0.0000000E+00 -0.1601753E-09
 -0.5050505E-02  0.0000000E+00 -0.5050505E-02  0.0000000E+00  0.0000000E+00 -0.1601753E-09
 -0.5050505E-02  0.0000000E+00 -0.5050505E-02 -0.7497831E-17  0.0000000E+00 -0.1601753E-09
 -0.5050505E-02  0.0000000E+00 -0.5050505E-02 -0.1499566E-16  0.0000000E+00 -0.1601753E-09
 -0.5050505E-02  0.0000000E+00 -0.5050505E-02 -0.1499566E-16  0.0000000E+00 -0.1601753E-09
 -0.5050505E-02  0.0000000E+00 -0.5050505E-02 -0.1499566E-16  0.0000000E+00 -0.1601754E-09
 -0.5050505E-02  0.0000000E+00 -0.5050505E-02 -0.1499566E-16  0.0000000E+00 -0.1601754E-09
 -0.5050504E-02  0.0000000E+00 -0.5050505E-02 -0.2999133E-16  0.0000000E+00 -0.1601754E-09
 -0.5050501E-02  0.0000000E+00 -0.5050505E-02 -0.4498699E-16  0.0000000E+00 -0.1601755E-09
 -0.5050495E-02  0.0000000E+00 -0.5050505E-02 -0.1499566E-16  0.0000000E+00 -0.1601756E-09
 -0.5050482E-02  0.0000000E+00 -0.5050505E-02 -0.4498699E-16  0.0000000E+00 -0.1601756E-09
 -0.5050449E-02  0.0000000E+00 -0.5050505E-02 -0.2999133E-16  0.0000000E+00 -0.1601757E-09
 -0.5050376E-02  0.0000000E+00 -0.5050505E-02 -0.7497831E-16  0.0000000E+00 -0.1601758E-09
 -0.5050299E-02  0.0000000E+00 -0.5050505E-02 -0.9747181E-16  0.0000000E+00 -0.1601760E-09
 -0.5050178E-02  0.0000000E+00 -0.5050505E-02 -0.1274631E-15  0.0000000E+00 -0.1601762E-09
 -0.5050018E-02  0.0000000E+00 -0.5050505E-02 -0.1574545E-15  0.0000000E+00 -0.1601765E-09
 -0.5049710E-02  0.0000000E+00 -0.5050505E-02 -0.1949436E-15  0.0000000E+00 -0.1601768E-09
 -0.5049253E-02  0.0000000E+00 -0.5050505E-02 -0.2399306E-15  0.0000000E+00 -0.1601773E-09
 -0.5048636E-02  0.0000000E+00 -0.5050505E-02 -0.2924154E-15  0.0000000E+00 -0.1601778E-09
 -0.5047442E-02  0.0000000E+00 -0.5050505E-02 -0.3748916E-15  0.0000000E+00 -0.1601785E-09
 -0.5045727E-02  0.0000000E+00 -0.5050505E-02 -0.4723634E-15  0.0000000E+00 -0.1601793E-09
 -0.5043261E-02  0.0000000E+00 -0.5050505E-02 -0.5848308E-15  0.0000000E+00 -0.1601804E-09
 -0.5038714E-02  0.0000000E+00 -0.5050505E-02 -0.7122940E-15  0.0000000E+00 -0.1601817E-09
 -0.5032318E-02  0.0000000E+00 -0.5050505E-02 -0.8622506E-15  0.0000000E+00 -0.1601833E-09
 -0.5022454E-02  0.0000000E+00 -0.5050505E-02 -0.1072190E-14  0.0000000E+00 -0.1601852E-09
 -0.5012589E-02  0.0000000E+00 -0.5050505E-02 -0.1289627E-14  0.0000000E+00 -0.1601876E-09
 -0.5002725E-02  0.0000000E+00 -0.5050505E-02 -0.1582042E-14  0.0000000E+00 -0.1601904E-09
 -0.4992860E-02  0.0000000E+00 -0.5050505E-02 -0.1941938E-14  0.0000000E+00 -0.1601939E-09
 -0.4976523E-02  0.0000000E+00 -0.5050505E-02 -0.2391808E-14  0.0000000E+00 -0.1601983E-09
 -0.4956794E-02  0.0000000E+00 -0.5050505E-02 -0.2924154E-14  0.0000000E+00 -0.1602036E-09
 -0.4937066E-02  0.0000000E+00 -0.5050505E-02 -0.3606457E-14  0.0000000E+00 -0.1602101E-09
 -0.4906239E-02  0.0000000E+00 -0.5050505E-02 -0.4438716E-14  0.0000000E+00 -0.1602182E-09
 -0.4866782E-02  0.0000000E+00 -0.5050505E-02 -0.5428430E-14  0.0000000E+00 -0.1602280E-09
 -0.4827325E-02  0.0000000E+00 -0.5050505E-02 -0.6620585E-14  0.0000000E+00 -0.1602401E-09
 -0.4769372E-02  0.0000000E+00 -0.5050505E-02 -0.8090160E-14  0.0000000E+00 -0.1602548E-09
 -0.4690458E-02  0.0000000E+00 -0.5050505E-02 -0.9942124E-14  0.0000000E+00 -0.1602728E-09
 -0.4611543E-02  0.0000000E+00 -0.5050505E-02 -0.1237892E-13  0.0000000E+00 -0.1602952E-09
 -0.4503035E-02  0.0000000E+00 -0.5050505E-02 -0.1567797E-13  0.0000000E+00 -0.1603232E-09
 -0.4345206E-02  0.0000000E+00 -0.5050505E-02 -0.2035661E-13  0.0000000E+00 -0.1603592E-09
 -0.4187378E-02  0.0000000E+00 -0.5050505E-02 -0.2713465E-13  0.0000000E+00 -0.1604067E-09
 -0.3985156E-02  0.0000000E+00 -0.5050505E-02 -0.3708427E-13  0.0000000E+00 -0.1604710E-09
 -0.3669499E-02  0.0000000E+00 -0.5050505E-02 -0.5206494E-13  0.0000000E+00 -0.1605601E-09
 -0.3353842E-02  0.0000000E+00 -0.5050505E-02 -0.7548817E-13  0.0000000E+00 -0.1606877E-09
 -0.2978990E-02  0.0000000E+00 -0.5050505E-02 -0.1143419E-12  0.0000000E+00 -0.1608775E-09
 -0.2347676E-02  0.0000000E+00 -0.5050505E-02 -0.1843492E-12  0.0000000E+00 -0.1611762E-09
 -0.1716362E-02  0.0000000E+00 -0.5050505E-02 -0.3238013E-12  0.0000000E+00 -0.1616843E-09
 -0.1025842E-02  0.0000000E+00 -0.5050505E-02 -0.6350288E-12  0.0000000E+00 -0.1626432E-09
  0.2367855E-03  0.0000000E+00 -0.5050505E-02 -0.1422594E-11  0.0000000E+00 -0.1647008E-09
  0.1499413E-02  0.0000000E+00 -0.5050505E-02 -0.3690620E-11  0.0000000E+00 -0.1698140E-09
  0.5287294E-02  0.0000000E+00 -0.5050505E-02 -0.6011135E-10  0.0000000E+00 -0.1357982E-09
 -0.5050505E-02  0.0000000E+00 -0.5050505E-02  0.5475564E-14  0.0000000E+00 -0.1601958E-09
 -0.5050505E-02  0.0000000E+00 -0.5050505E-02  0.5995609E-14  0.0000000E+00 -0.1601964E-09
 -0.5050505E-02  0.0000000E+00 -0.5050505E-02  0.3994068E-14  0.0000000E+00 -0.1601967E-09
 -0.5050505E-02  0.0000000E+00 -0.5050505E-02  0.9231512E-14  0.0000000E+00 -0.1601964E-09
 -0.5050505E-02  0.0000000E+00 -0.5050505E-02  0.1315658E-13  0.0000000E+00 -0.1601920E-09
 -0.5050505E-02  0.0000000E+00 -0.5050505E-02  0.7971708E-14  0.0000000E+00 -0.1601864E-09
 -0.5050504E-02  0.0000000E+00 -0.5050505E-02  0.3738131E-14  0.0000000E+00 -0.1601841E-09
 -0.5050501E-02  0.0000000E+00 -0.5050505E-02 -0.2492943E-14  0.0000000E+00 -0.1601856E-09
 -0.5050495E-02  0.0000000E+00 -0.5050505E-02 -0.1049363E-13  0.0000000E+00 -0.1601911E-09
 -0.5050482E-02  0.0000000E+00 -0.5050505E-02 -0.1279513E-13  0.0000000E+00 -0.1601995E-09
 -0.5050449E-02  0.0000000E+00 -0.5050505E-02 -0.1126671E-13  0.0000000E+00 -0.1602069E-09
 -0.5050376E-02  0.0000000E+00 -0.5050505E-02 -0.7794793E-14  0.0000000E+00 -0.1602110E-09
 -0.5050299E-02  0.0000000E+00 -0.5050505E-02 -0.3117201E-14  0.0000000E+00 -0.1602125E-09
 -0.5050178E-02  0.0000000E+00 -0.5050505E-02  0.9487701E-15  0.0000000E+00 -0.1602124E-09
 -0.5050018E-02  0.0000000E+00 -0.5050505E-02  0.2817541E-14  0.0000000E+00 -0.1602117E-09
 -0.5049710E-02  0.0000000E+00 -0.5050505E-02  0.2033175E-14  0.0000000E+00 -0.1602111E-09
 -0.5049253E-02  0.0000000E+00 -0.5050505E-02 -0.2459118E-15  0.0000000E+00 -0.1602112E-09
 -0.5048636E-02  0.0000000E+00 -0.5050505E-02 -0.2412826E-14  0.0000000E+00 -0.1602123E-09
 -0.5047442E-02  0.0000000E+00 -0.5050505E-02 -0.3458984E-14  0.0000000E+00 -0.1602140E-09
 -0.5045727E-02  0.0000000E+00 -0.5050505E-02 -0.3376803E-14  0.0000000E+00 -0.1602160E-09
 -0.5043261E-02  0.0000000E+00 -0.5050505E-02 -0.2435404E-14  0.0000000E+00 -0.1602176E-09
 -0.5038714E-02  0.0000000E+00 -0.5050505E-02 -0.1187816E-14  0.0000000E+00 -0.1602187E-09
 -0.5032318E-02  0.0000000E+00 -0.5050505E-02 -0.1493668E-15  0.0000000E+00 -0.1602191E-09
 -0.5022454E-02  0.0000000E+00 -0.5050505E-02  0.5902223E-15  0.0000000E+00 -0.1602190E-09
 -0.5012589E-02  0.0000000E+00 -0.5050505E-02  0.9787193E-15  0.0000000E+00 -0.1602186E-09
 -0.5002725E-02  0.0000000E+00 -0.5050505E-02  0.1060901E-14  0.0000000E+00 -0.1602180E-09
 -0.4992860E-02  0.0000000E+00 -0.5050505E-02  0.9936728E-15  0.0000000E+00 -0.1602175E-09
 -0.4976523E-02  0.0000000E+00 -0.5050505E-02  0.7620405E-15  0.0000000E+00 -0.1602170E-09
 -0.4956794E-02  0.0000000E+00 -0.5050505E-02  0.6424543E-15  0.0000000E+00 -0.1602166E-09
 -0.4937066E-02  0.0000000E+00 -0.5050505E-02  0.4930454E-15  0.0000000E+00 -0.1602163E-09
 -0.4906239E-02  0.0000000E+00 -0.5050505E-02  0.2912780E-15  0.0000000E+00 -0.1602160E-09
 -0.4866782E-02  0.0000000E+00 -0.5050505E-02  0.2764087E-15  0.0000000E+00 -0.1602158E-09
 -0.4827325E-02  0.0000000E+00 -0.5050505E-02  0.3137715E-15  0.0000000E+00 -0.1602157E-09
 -0.4769372E-02  0.0000000E+00 -0.5050505E-02  0.2764087E-15  0.0000000E+00 -0.1602155E-09
 -0.4690458E-02  0.0000000E+00 -0.5050505E-02  0.2688266E-15  0.0000000E+00 -0.1602153E-09
 -0.4611543E-02  0.0000000E+00 -0.5050505E-02  0.2315902E-15  0.0000000E+00 -0.1602151E-09
 -0.4503035E-02  0.0000000E+00 -0.5050505E-02  0.1718182E-15  0.0000000E+00 -0.1602150E-09
 -0.4345206E-02  0.0000000E+00 -0.5050505E-02  0.8213912E-16  0.0000000E+00 -0.1602149E-09
 -0.4187378E-02  0.0000000E+00 -0.5050505E-02  0.8963695E-16  0.0000000E+00 -0.1602148E-09
 -0.3985156E-02  0.0000000E+00 -0.5050505E-02  0.8963695E-16  0.0000000E+00 -0.1602148E-09
 -0.3669499E-02  0.0000000E+00 -0.5050505E-02  0.8213912E-16  0.0000000E+00 -0.1602147E-09
 -0.3353842E-02  0.0000000E+00 -0.5050505E-02  0.6726984E-16  0.0000000E+00 -0.1602146E-09
 -0.2978990E-02  0.0000000E+00 -0.5050505E-02  0.1045905E-15  0.0000000E+00 -0.1602146E-09
 -0.2347676E-02  0.0000000E+00 -0.5050505E-02  0.5227418E-16  0.0000000E+00 -0.1602146E-09
 -0.1716362E-02  0.0000000E+00 -0.5050505E-02  0.1495353E-16  0.0000000E+00 -0.1602145E-09
 -0.1025842E-02  0.0000000E+00 -0.5050505E-02  0.1495353E-16  0.0000000E+00 -0.1602145E-09
  0.2367855E-03  0.0000000E+00 -0.5050505E-02 -0.7497831E-17  0.0000000E+00 -0.1602145E-09
  0.1499413E-02  0.0000000E+00 -0.5050505E-02  0.2240924E-16  0.0000000E+00 -0.1602145E-09
  0.2762042E-02  0.0000000E+00 -0.5050505E-02  0.2990707E-16  0.0000000E+00 -0.1602145E-09
 -0.5050505E-02  0.0000000E+00 -0.5050505E-02  0.1495353E-16  0.0000000E+00 -0.1602145E-09
 -0.5050505E-02  0.0000000E+00 -0.5050505E-02  0.7455703E-17  0.0000000E+00 -0.1602145E-09
 -0.5050505E-02  0.0000000E+00 -0.5050505E-02 -0.7497831E-17  0.0000000E+00 -0.1602145E-09
 -0.5050505E-02  0.0000000E+00 -0.5050505E-02 -0.3736277E-16  0.0000000E+00 -0.1602145E-09
 -0.5050505E-02  0.0000000E+00 -0.5050505E-02 -0.5972988E-16  0.0000000E+00 -0.1602145E-09
 -0.5050505E-02  0.0000000E+00 -0.5050505E-02 -0.5227418E-16  0.0000000E+00 -0.1602146E-09
 -0.5050505E-02  0.0000000E+00 -0.5050505E-02 -0.4481848E-16  0.0000000E+00 -0.1602146E-09
 -0.5050504E-02  0.0000000E+00 -0.5050505E-02 -0.7472555E-16  0.0000000E+00 -0.1602146E-09
 -0.5050501E-02  0.0000000E+00 -0.5050505E-02 -0.1120883E-15  0.0000000E+00 -0.1602147E-09
 -0.5050495E-02  0.0000000E+00 -0.5050505E-02 -0.8209699E-16  0.0000000E+00 -0.1602148E-09
 -0.5050482E-02  0.0000000E+00 -0.5050505E-02 -0.1046326E-15  0.0000000E+00 -0.1602148E-09
 -0.5050449E-02  0.0000000E+00 -0.5050505E-02 -0.1120041E-15  0.0000000E+00 -0.1602149E-09
 -0.5050376E-02  0.0000000E+00 -0.5050505E-02 -0.2166367E-15  0.0000000E+00 -0.1602150E-09
 -0.5050299E-02  0.0000000E+00 -0.5050505E-02 -0.2913201E-15  0.0000000E+00 -0.1602152E-09
 -0.5050178E-02  0.0000000E+00 -0.5050505E-02 -0.3735013E-15  0.0000000E+00 -0.1602154E-09
 -0.5050018E-02  0.0000000E+00 -0.5050505E-02 -0.4556826E-15  0.0000000E+00 -0.1602156E-09
 -0.5049710E-02  0.0000000E+00 -0.5050505E-02 -0.5900959E-15  0.0000000E+00 -0.1602160E-09
 -0.5049253E-02  0.0000000E+00 -0.5050505E-02 -0.7245513E-15  0.0000000E+00 -0.1602164E-09
 -0.5048636E-02  0.0000000E+00 -0.5050505E-02 -0.8814160E-15  0.0000000E+00 -0.1602170E-09
 -0.5047442E-02  0.0000000E+00 -0.5050505E-02 -0.1120462E-14  0.0000000E+00 -0.1602177E-09
 -0.5045727E-02  0.0000000E+00 -0.5050505E-02 -0.1411782E-14  0.0000000E+00 -0.1602185E-09
 -0.5043261E-02  0.0000000E+00 -0.5050505E-02 -0.1725553E-14  0.0000000E+00 -0.1602195E-09
 -0.5038714E-02  0.0000000E+00 -0.5050505E-02 -0.2136333E-14  0.0000000E+00 -0.1602208E-09
 -0.5032318E-02  0.0000000E+00 -0.5050505E-02 -0.2591974E-14  0.0000000E+00 -0.1602224E-09
 -0.5022454E-02  0.0000000E+00 -0.5050505E-02 -0.3167243E-14  0.0000000E+00 -0.1602243E-09
 -0.5012589E-02  0.0000000E+00 -0.5050505E-02 -0.3846933E-14  0.0000000E+00 -0.1602266E-09
 -0.5002725E-02  0.0000000E+00 -0.5050505E-02 -0.4698526E-14  0.0000000E+00 -0.1602294E-09
 -0.4992860E-02  0.0000000E+00 -0.5050505E-02 -0.5766714E-14  0.0000000E+00 -0.1602328E-09
 -0.4976523E-02  0.0000000E+00 -0.5050505E-02 -0.7118724E-14  0.0000000E+00 -0.1602371E-09
 -0.4956794E-02  0.0000000E+00 -0.5050505E-02 -0.8724691E-14  0.0000000E+00 -0.1602423E-09
 -0.4937066E-02  0.0000000E+00 -0.5050505E-02 -0.1071174E-13  0.0000000E+00 -0.1602487E-09
 -0.4906239E-02  0.0000000E+00 -0.5050505E-02 -0.1316189E-13  0.0000000E+00 -0.1602566E-09
 -0.4866782E-02  0.0000000E+00 -0.5050505E-02 -0.1609009E-13  0.0000000E+00 -0.1602661E-09
 -0.4827325E-02  0.0000000E+00 -0.5050505E-02 -0.1956369E-13  0.0000000E+00 -0.1602778E-09
 -0.4769372E-02  0.0000000E+00 -0.5050505E-02 -0.2382915E-13  0.0000000E+00 -0.1602918E-09
 -0.4690458E-02  0.0000000E+00 -0.5050505E-02 -0.2921512E-13  0.0000000E+00 -0.1603089E-09
 -0.4611543E-02  0.0000000E+00 -0.5050505E-02 -0.3624463E-13  0.0000000E+00 -0.1603298E-09
 -0.4503035E-02  0.0000000E+00 -0.5050505E-02 -0.4573936E-13  0.0000000E+00 -0.1603559E-09
 -0.4345206E-02  0.0000000E+00 -0.5050505E-02 -0.5914864E-13  0.0000000E+00 -0.1603889E-09
 -0.4187378E-02  0.0000000E+00 -0.5050505E-02 -0.7842244E-13  0.0000000E+00 -0.1604318E-09
 -0.3985156E-02  0.0000000E+00 -0.5050505E-02 -0.1064074E-12  0.0000000E+00 -0.1604885E-09
 -0.3669499E-02  0.0000000E+00 -0.5050505E-02 -0.1476620E-12  0.0000000E+00 -0.1605648E-09
 -0.3353842E-02  0.0000000E+00 -0.5050505E-02 -0.2103246E-12  0.0000000E+00 -0.1606684E-09
 -0.2978990E-02  0.0000000E+00 -0.5050505E-02 -0.3102405E-12  0.0000000E+00 -0.1608103E-09
 -0.2347676E-02  0.0000000E+00 -0.5050505E-02 -0.4808550E-12  0.0000000E+00 -0.1610057E-09
 -0.1716362E-02  0.0000000E+00 -0.5050505E-02 -0.7957250E-12  0.0000000E+00 -0.1612689E-09
 -0.1025842E-02  0.0000000E+00 -0.5050505E-02 -0.1424036E-11  0.0000000E+00 -0.1615764E-09
  0.2367855E-03  0.0000000E+00 -0.5050505E-02 -0.2780411E-11  0.0000000E+00 -0.1616771E-09
  0.1499413E-02  0.0000000E+00 -0.5050505E-02 -0.5947715E-11  0.0000000E+00 -0.1602076E-09
  0.5287294E-02  0.0000000E+00 -0.5050505E-02 -0.1388447E-10  0.0000000E+00 -0.1506126E-09
 -0.5050505E-02  0.0000000E+00 -0.5050505E-02 -0.5358749E-15  0.0000000E+00 -0.1602287E-09
 -0.5050505E-02  0.0000000E+00 -0.5050505E-02  0.3857915E-14  0.0000000E+00 -0.1602361E-09
 -0.5050505E-02  0.0000000E+00 -0.5050505E-02  0.1677826E-14  0.0000000E+00 -0.1602403E-09
 -0.5050505E-02  0.0000000E+00 -0.5050505E-02  0.5766450E-14  0.0000000E+00 -0.1602463E-09
 -0.5050505E-02  0.0000000E+00 -0.5050505E-02  0.1465211E-13  0.0000000E+00 -0.1602525E-09
 -0.5050505E-02  0.0000000E+00 -0.5050505E-02  0.9369767E-14  0.0000000E+00 -0.1602551E-09
 -0.5050504E-02  0.0000000E+00 -0.5050505E-02  0.2509185E-14  0.0000000E+00 -0.1602571E-09
 -0.5050501E-02  0.0000000E+00 -0.5050505E-02 -0.4741310E-14  0.0000000E+00 -0.1602591E-09
 -0.5050495E-02  0.0000000E+00 -0.5050505E-02 -0.1623987E-13  0.0000000E+00 -0.1602617E-09
 -0.5050482E-02  0.0000000E+00 -0.5050505E-02 -0.2052546E-13  0.0000000E+00 -0.1602669E-09
 -0.5050449E-02  0.0000000E+00 -0.5050505E-02 -0.1689150E-13  0.0000000E+00 -0.1602730E-09
 -0.5050376E-02  0.0000000E+00 -0.5050505E-02 -0.1000435E-13  0.0000000E+00 -0.1602768E-09
 -0.5050299E-02  0.0000000E+00 -0.5050505E-02 -0.3212125E-14  0.0000000E+00 -0.1602777E-09
 -0.5050178E-02  0.0000000E+00 -0.5050505E-02  0.1456551E-14  0.0000000E+00 -0.1602774E-09
 -0.5050018E-02  0.0000000E+00 -0.5050505E-02  0.3189632E-14  0.0000000E+00 -0.1602772E-09
 -0.5049710E-02  0.0000000E+00 -0.5050505E-02  0.1926386E-14  0.0000000E+00 -0.1602775E-09
 -0.5049253E-02  0.0000000E+00 -0.5050505E-02 -0.1032036E-14  0.0000000E+00 -0.1602783E-09
 -0.5048636E-02  0.0000000E+00 -0.5050505E-02 -0.3812232E-14  0.0000000E+00 -0.1602794E-09
 -0.5047442E-02  0.0000000E+00 -0.5050505E-02 -0.5113175E-14  0.0000000E+00 -0.1602807E-09
 -0.5045727E-02  0.0000000E+00 -0.5050505E-02 -0.4994260E-14  0.0000000E+00 -0.1602821E-09
 -0.5043261E-02  0.0000000E+00 -0.5050505E-02 -0.3715768E-14  0.0000000E+00 -0.1602834E-09
 -0.5038714E-02  0.0000000E+00 -0.5050505E-02 -0.1917090E-14  0.0000000E+00 -0.1602843E-09
 -0.5032318E-02  0.0000000E+00 -0.5050505E-02 -0.4009355E-15  0.0000000E+00 -0.1602849E-09
 -0.5022454E-02  0.0000000E+00 -0.5050505E-02  0.7360658E-15  0.0000000E+00 -0.1602851E-09
 -0.5012589E-02  0.0000000E+00 -0.5050505E-02  0.1337971E-14  0.0000000E+00 -0.1602850E-09
 -0.5002725E-02  0.0000000E+00 -0.5050505E-02  0.1508783E-14  0.0000000E+00 -0.1602848E-09
 -0.4992860E-02  0.0000000E+00 -0.5050505E-02  0.1419565E-14  0.0000000E+00 -0.1602844E-09
 -0.4976523E-02  0.0000000E+00 -0.5050505E-02  0.1085146E-14  0.0000000E+00 -0.1602841E-09
 -0.4956794E-02  0.0000000E+00 -0.5050505E-02  0.8994223E-15  0.0000000E+00 -0.1602839E-09
 -0.4937066E-02  0.0000000E+00 -0.5050505E-02  0.7728426E-15  0.0000000E+00 -0.1602837E-09
 -0.4906239E-02  0.0000000E+00 -0.5050505E-02  0.5275152E-15  0.0000000E+00 -0.1602835E-09
 -0.4866782E-02  0.0000000E+00 -0.5050505E-02  0.4384230E-15  0.0000000E+00 -0.1602833E-09
 -0.4827325E-02  0.0000000E+00 -0.5050505E-02  0.4682040E-15  0.0000000E+00 -0.1602831E-09
 -0.4769372E-02  0.0000000E+00 -0.5050505E-02  0.4310092E-15  0.0000000E+00 -0.1602830E-09
 -0.4690458E-02  0.0000000E+00 -0.5050505E-02  0.4755761E-15  0.0000000E+00 -0.1602828E-09
 -0.4611543E-02  0.0000000E+00 -0.5050505E-02  0.3641169E-15  0.0000000E+00 -0.1602827E-09
 -0.4503035E-02  0.0000000E+00 -0.5050505E-02  0.2897689E-15  0.0000000E+00 -0.1602825E-09
 -0.4345206E-02  0.0000000E+00 -0.5050505E-02  0.1708540E-15  0.0000000E+00 -0.1602824E-09
 -0.4187378E-02  0.0000000E+00 -0.5050505E-02  0.1486123E-15  0.0000000E+00 -0.1602823E-09
 -0.3985156E-02  0.0000000E+00 -0.5050505E-02  0.1486123E-15  0.0000000E+00 -0.1602823E-09
 -0.3669499E-02  0.0000000E+00 -0.5050505E-02  0.1486123E-15  0.0000000E+00 -0.1602822E-09
 -0.3353842E-02  0.0000000E+00 -0.5050505E-02  0.8917575E-16  0.0000000E+00 -0.1602822E-09
 -0.2978990E-02  0.0000000E+00 -0.5050505E-02  0.1486541E-15  0.0000000E+00 -0.1602821E-09
 -0.2347676E-02  0.0000000E+00 -0.5050505E-02  0.8917575E-16  0.0000000E+00 -0.1602821E-09
 -0.1716362E-02  0.0000000E+00 -0.5050505E-02  0.2228348E-16  0.0000000E+00 -0.1602821E-09
 -0.1025842E-02  0.0000000E+00 -0.5050505E-02  0.1486959E-16  0.0000000E+00 -0.1602821E-09
  0.2367855E-03  0.0000000E+00 -0.5050505E-02  0.2224167E-16  0.0000000E+00 -0.1602821E-09
  0.1499413E-02  0.0000000E+00 -0.5050505E-02  0.7497517E-17  0.0000000E+00 -0.1602821E-09
  0.2762042E-02  0.0000000E+00 -0.5050505E-02  0.3715308E-16  0.0000000E+00 -0.1602821E-09
 -0.5050505E-02  0.0000000E+00 -0.5050505E-02  0.2228348E-16  0.0000000E+00 -0.1602821E-09
 -0.5050505E-02  0.0000000E+00 -0.5050505E-02  0.1486959E-16  0.0000000E+00 -0.1602821E-09
 -0.5050505E-02  0.0000000E+00 -0.5050505E-02 -0.7413890E-17  0.0000000E+00 -0.1602821E-09
 -0.5050505E-02  0.0000000E+00 -0.5050505E-02 -0.2236711E-16  0.0000000E+00 -0.1602820E-09
 -0.5050505E-02  0.0000000E+00 -0.5050505E-02 -0.1114592E-15  0.0000000E+00 -0.1602820E-09
 -0.5050505E-02  0.0000000E+00 -0.5050505E-02 -0.1040035E-15  0.0000000E+00 -0.1602821E-09
 -0.5050505E-02  0.0000000E+00 -0.5050505E-02 -0.7430616E-16  0.0000000E+00 -0.1602821E-09
 -0.5050504E-02  0.0000000E+00 -0.5050505E-02 -0.9663145E-16  0.0000000E+00 -0.1602822E-09
 -0.5050501E-02  0.0000000E+00 -0.5050505E-02 -0.1634819E-15  0.0000000E+00 -0.1602822E-09
 -0.5050495E-02  0.0000000E+00 -0.5050505E-02 -0.1708958E-15  0.0000000E+00 -0.1602823E-09
 -0.5050482E-02  0.0000000E+00 -0.5050505E-02 -0.1486123E-15  0.0000000E+00 -0.1602823E-09
 -0.5050449E-02  0.0000000E+00 -0.5050505E-02 -0.2302905E-15  0.0000000E+00 -0.1602824E-09
 -0.5050376E-02  0.0000000E+00 -0.5050505E-02 -0.3344195E-15  0.0000000E+00 -0.1602825E-09
 -0.5050299E-02  0.0000000E+00 -0.5050505E-02 -0.4904039E-15  0.0000000E+00 -0.1602827E-09
 -0.5050178E-02  0.0000000E+00 -0.5050505E-02 -0.6019049E-15  0.0000000E+00 -0.1602829E-09
 -0.5050018E-02  0.0000000E+00 -0.5050505E-02 -0.7356477E-15  0.0000000E+00 -0.1602832E-09
 -0.5049710E-02  0.0000000E+00 -0.5050505E-02 -0.9882635E-15  0.0000000E+00 -0.1602835E-09
 -0.5049253E-02  0.0000000E+00 -0.5050505E-02 -0.1211182E-14  0.0000000E+00 -0.1602840E-09
 -0.5048636E-02  0.0000000E+00 -0.5050505E-02 -0.1471254E-14  0.0000000E+00 -0.1602845E-09
 -0.5047442E-02  0.0000000E+00 -0.5050505E-02 -0.1872482E-14  0.0000000E+00 -0.1602852E-09
 -0.5045727E-02  0.0000000E+00 -0.5050505E-02 -0.2325816E-14  0.0000000E+00 -0.1602860E-09
 -0.5043261E-02  0.0000000E+00 -0.5050505E-02 -0.2838503E-14  0.0000000E+00 -0.1602870E-09
 -0.5038714E-02  0.0000000E+00 -0.5050505E-02 -0.3522170E-14  0.0000000E+00 -0.1602883E-09
 -0.5032318E-02  0.0000000E+00 -0.5050505E-02 -0.4302343E-14  0.0000000E+00 -0.1602898E-09
 -0.5022454E-02  0.0000000E+00 -0.5050505E-02 -0.5201473E-14  0.0000000E+00 -0.1602917E-09
 -0.5012589E-02  0.0000000E+00 -0.5050505E-02 -0.6345804E-14  0.0000000E+00 -0.1602940E-09
 -0.5002725E-02  0.0000000E+00 -0.5050505E-02 -0.7713096E-14  0.0000000E+00 -0.1602967E-09
 -0.4992860E-02  0.0000000E+00 -0.5050505E-02 -0.9444505E-14  0.0000000E+00 -0.1603000E-09
 -0.4976523E-02  0.0000000E+00 -0.5050505E-02 -0.1167373E-13  0.0000000E+00 -0.1603041E-09
 -0.4956794E-02  0.0000000E+00 -0.5050505E-02 -0.1437841E-13  0.0000000E+00 -0.1603091E-09
 -0.4937066E-02  0.0000000E+00 -0.5050505E-02 -0.1756628E-13  0.0000000E+00 -0.1603153E-09
 -0.4906239E-02  0.0000000E+00 -0.5050505E-02 -0.2148248E-13  0.0000000E+00 -0.1603228E-09
 -0.4866782E-02  0.0000000E+00 -0.5050505E-02 -0.2617893E-13  0.0000000E+00 -0.1603318E-09
 -0.4827325E-02  0.0000000E+00 -0.5050505E-02 -0.3170766E-13  0.0000000E+00 -0.1603426E-09
 -0.4769372E-02  0.0000000E+00 -0.5050505E-02 -0.3838842E-13  0.0000000E+00 -0.1603555E-09
 -0.4690458E-02  0.0000000E+00 -0.5050505E-02 -0.4679335E-13  0.0000000E+00 -0.1603709E-09
 -0.4611543E-02  0.0000000E+00 -0.5050505E-02 -0.5773236E-13  0.0000000E+00 -0.1603894E-09
 -0.4503035E-02  0.0000000E+00 -0.5050505E-02 -0.7242437E-13  0.0000000E+00 -0.1604120E-09
 -0.4345206E-02  0.0000000E+00 -0.5050505E-02 -0.9284670E-13  0.0000000E+00 -0.1604399E-09
 -0.4187378E-02  0.0000000E+00 -0.5050505E-02 -0.1217716E-12  0.0000000E+00 -0.1604749E-09
 -0.3985156E-02  0.0000000E+00 -0.5050505E-02 -0.1627826E-12  0.0000000E+00 -0.1605189E-09
 -0.3669499E-02  0.0000000E+00 -0.5050505E-02 -0.2211438E-12  0.0000000E+00 -0.1605739E-09
 -0.3353842E-02  0.0000000E+00 -0.5050505E-02 -0.3055264E-12  0.0000000E+00 -0.1606410E-09
 -0.2978990E-02  0.0000000E+00 -0.5050505E-02 -0.4313786E-12  0.0000000E+00 -0.1607183E-09
 -0.2347676E-02  0.0000000E+00 -0.5050505E-02 -0.6274842E-12  0.0000000E+00 -0.1607951E-09
 -0.1716362E-02  0.0000000E+00 -0.5050505E-02 -0.9467463E-12  0.0000000E+00 -0.1608368E-09
 -0.1025842E-02  0.0000000E+00 -0.5050505E-02 -0.1476275E-11  0.0000000E+00 -0.1607450E-09
  0.2367855E-03  0.0000000E+00 -0.5050505E-02 -0.2320474E-11  0.0000000E+00 -0.1602602E-09
  0.1499413E-02  0.0000000E+00 -0.5050505E-02 -0.3432701E-11  0.0000000E+00 -0.1588038E-09
  0.5287294E-02  0.0000000E+00 -0.5050505E-02 -0.3678833E-11  0.0000000E+00 -0.1557895E-09
 -0.5050505E-02  0.0000000E+00 -0.5050505E-02 -0.1509964E-13  0.0000000E+00 -0.1602594E-09
 -0.5050505E-02  0.0000000E+00 -0.5050505E-02 -0.6188698E-14  0.0000000E+00 -0.1602766E-09
 -0.5050505E-02  0.0000000E+00 -0.5050505E-02 -0.2108794E-14  0.0000000E+00 -0.1602863E-09
 -0.5050505E-02  0.0000000E+00 -0.5050505E-02 -0.3387066E-14  0.0000000E+00 -0.1602932E-09
 -0.5050505E-02  0.0000000E+00 -0.5050505E-02  0.6545179E-14  0.0000000E+00 -0.1603041E-09
 -0.5050505E-02  0.0000000E+00 -0.5050505E-02  0.3924231E-14  0.0000000E+00 -0.1603149E-09
 -0.5050504E-02  0.0000000E+00 -0.5050505E-02 -0.3387937E-14  0.0000000E+00 -0.1603242E-09
 -0.5050501E-02  0.0000000E+00 -0.5050505E-02 -0.7100180E-14  0.0000000E+00 -0.1603304E-09
 -0.5050495E-02  0.0000000E+00 -0.5050505E-02 -0.1728711E-13  0.0000000E+00 -0.1603313E-09
 -0.5050482E-02  0.0000000E+00 -0.5050505E-02 -0.2409331E-13  0.0000000E+00 -0.1603310E-09
 -0.5050449E-02  0.0000000E+00 -0.5050505E-02 -0.2146432E-13  0.0000000E+00 -0.1603332E-09
 -0.5050376E-02  0.0000000E+00 -0.5050505E-02 -0.1291036E-13  0.0000000E+00 -0.1603371E-09
 -0.5050299E-02  0.0000000E+00 -0.5050505E-02 -0.4247797E-14  0.0000000E+00 -0.1603401E-09
 -0.5050178E-02  0.0000000E+00 -0.5050505E-02  0.1081100E-14  0.0000000E+00 -0.1603419E-09
 -0.5050018E-02  0.0000000E+00 -0.5050505E-02  0.2699720E-14  0.0000000E+00 -0.1603430E-09
 -0.5049710E-02  0.0000000E+00 -0.5050505E-02  0.1257913E-14  0.0000000E+00 -0.1603438E-09
 -0.5049253E-02  0.0000000E+00 -0.5050505E-02 -0.1876861E-14  0.0000000E+00 -0.1603445E-09
 -0.5048636E-02  0.0000000E+00 -0.5050505E-02 -0.4878227E-14  0.0000000E+00 -0.1603453E-09
 -0.5047442E-02  0.0000000E+00 -0.5050505E-02 -0.6260640E-14  0.0000000E+00 -0.1603462E-09
 -0.5045727E-02  0.0000000E+00 -0.5050505E-02 -0.6149681E-14  0.0000000E+00 -0.1603472E-09
 -0.5043261E-02  0.0000000E+00 -0.5050505E-02 -0.4781930E-14  0.0000000E+00 -0.1603482E-09
 -0.5038714E-02  0.0000000E+00 -0.5050505E-02 -0.2741589E-14  0.0000000E+00 -0.1603492E-09
 -0.5032318E-02  0.0000000E+00 -0.5050505E-02 -0.9305811E-15  0.0000000E+00 -0.1603500E-09
 -0.5022454E-02  0.0000000E+00 -0.5050505E-02  0.4812388E-15  0.0000000E+00 -0.1603505E-09
 -0.5012589E-02  0.0000000E+00 -0.5050505E-02  0.1316311E-14  0.0000000E+00 -0.1603509E-09
 -0.5002725E-02  0.0000000E+00 -0.5050505E-02  0.1656105E-14  0.0000000E+00 -0.1603510E-09
 -0.4992860E-02  0.0000000E+00 -0.5050505E-02  0.1626366E-14  0.0000000E+00 -0.1603510E-09
 -0.4976523E-02  0.0000000E+00 -0.5050505E-02  0.1278785E-14  0.0000000E+00 -0.1603509E-09
 -0.4956794E-02  0.0000000E+00 -0.5050505E-02  0.9758529E-15  0.0000000E+00 -0.1603508E-09
 -0.4937066E-02  0.0000000E+00 -0.5050505E-02  0.9314526E-15  0.0000000E+00 -0.1603507E-09