title = "dataset feddes"
variables = "x", "y", "z", "vx", "vy", "vz"
zone t = "velocities, solution time =  4.300E+01 days        " i =   99, j =   99, k =    1,  f=point
 -0.5050505E-02  0.0000000E+00 -0.5050505E-02  0.2333944E-10  0.0000000E+00  0.2064375E-06
 -0.5050505E-02  0.0000000E+00 -0.5050505E-02  0.7035320E-10  0.0000000E+00  0.2065317E-06
 -0.5050505E-02  0.0000000E+00 -0.5050505E-02  0.1172163E-09  0.0000000E+00  0.2067204E-06
 -0.5050505E-02  0.0000000E+00 -0.5050505E-02  0.1635659E-09  0.0000000E+00  0.2070027E-06
 -0.5050505E-02  0.0000000E+00 -0.5050505E-02  0.2092770E-09  0.0000000E+00  0.2073777E-06
 -0.5050505E-02  0.0000000E+00 -0.5050505E-02  0.2541744E-09  0.0000000E+00  0.2078438E-06
 -0.5050504E-02  0.0000000E+00 -0.5050505E-02  0.2980819E-09  0.0000000E+00  0.2083992E-06
 -0.5050501E-02  0.0000000E+00 -0.5050505E-02  0.3408526E-09  0.0000000E+00  0.2090417E-06
 -0.5050495E-02  0.0000000E+00 -0.5050505E-02  0.3823092E-09  0.0000000E+00  0.2097690E-06
 -0.5050482E-02  0.0000000E+00 -0.5050505E-02  0.4222864E-09  0.0000000E+00  0.2105781E-06
 -0.5050449E-02  0.0000000E+00 -0.5050505E-02  0.4606325E-09  0.0000000E+00  0.2114661E-06
 -0.5050376E-02  0.0000000E+00 -0.5050505E-02  0.4971919E-09  0.0000000E+00  0.2124293E-06
 -0.5050299E-02  0.0000000E+00 -0.5050505E-02  0.5318143E-09  0.0000000E+00  0.2134642E-06
 -0.5050178E-02  0.0000000E+00 -0.5050505E-02  0.5643583E-09  0.0000000E+00  0.2145665E-06
 -0.5050018E-02  0.0000000E+00 -0.5050505E-02  0.5946890E-09  0.0000000E+00  0.2157322E-06
 -0.5049710E-02  0.0000000E+00 -0.5050505E-02  0.6226774E-09  0.0000000E+00  0.2169564E-06
 -0.5049253E-02  0.0000000E+00 -0.5050505E-02  0.6482029E-09  0.0000000E+00  0.2182345E-06
 -0.5048636E-02  0.0000000E+00 -0.5050505E-02  0.6711531E-09  0.0000000E+00  0.2195613E-06
 -0.5047442E-02  0.0000000E+00 -0.5050505E-02  0.6914247E-09  0.0000000E+00  0.2209316E-06
 -0.5045727E-02  0.0000000E+00 -0.5050505E-02  0.7089239E-09  0.0000000E+00  0.2223399E-06
 -0.5043261E-02  0.0000000E+00 -0.5050505E-02  0.7235668E-09  0.0000000E+00  0.2237805E-06
 -0.5038714E-02  0.0000000E+00 -0.5050505E-02  0.7352797E-09  0.0000000E+00  0.2252477E-06
 -0.5032318E-02  0.0000000E+00 -0.5050505E-02  0.7440004E-09  0.0000000E+00  0.2267353E-06
 -0.5022454E-02  0.0000000E+00 -0.5050505E-02  0.7496776E-09  0.0000000E+00  0.2282375E-06
 -0.5012589E-02  0.0000000E+00 -0.5050505E-02  0.7522722E-09  0.0000000E+00  0.2297479E-06
 -0.5002725E-02  0.0000000E+00 -0.5050505E-02  0.7517572E-09  0.0000000E+00  0.2312605E-06
 -0.4992860E-02  0.0000000E+00 -0.5050505E-02  0.7481179E-09  0.0000000E+00  0.2327689E-06
 -0.4976523E-02  0.0000000E+00 -0.5050505E-02  0.7413528E-09  0.0000000E+00  0.2342668E-06
 -0.4956794E-02  0.0000000E+00 -0.5050505E-02  0.7314733E-09  0.0000000E+00  0.2357480E-06
 -0.4937066E-02  0.0000000E+00 -0.5050505E-02  0.7185042E-09  0.0000000E+00  0.2372061E-06
 -0.4906239E-02  0.0000000E+00 -0.5050505E-02  0.7024837E-09  0.0000000E+00  0.2386352E-06
 -0.4866782E-02  0.0000000E+00 -0.5050505E-02  0.6834635E-09  0.0000000E+00  0.2400290E-06
 -0.4827325E-02  0.0000000E+00 -0.5050505E-02  0.6615089E-09  0.0000000E+00  0.2413816E-06
 -0.4769372E-02  0.0000000E+00 -0.5050505E-02  0.6366985E-09  0.0000000E+00  0.2426872E-06
 -0.4690458E-02  0.0000000E+00 -0.5050505E-02  0.6091245E-09  0.0000000E+00  0.2439400E-06
 -0.4611543E-02  0.0000000E+00 -0.5050505E-02  0.5788917E-09  0.0000000E+00  0.2451348E-06
 -0.4503035E-02  0.0000000E+00 -0.5050505E-02  0.5461181E-09  0.0000000E+00  0.2462662E-06
 -0.4345206E-02  0.0000000E+00 -0.5050505E-02  0.5109338E-09  0.0000000E+00  0.2473292E-06
 -0.4187378E-02  0.0000000E+00 -0.5050505E-02  0.4734806E-09  0.0000000E+00  0.2483192E-06
 -0.3985156E-02  0.0000000E+00 -0.5050505E-02  0.4339117E-09  0.0000000E+00  0.2492318E-06
 -0.3669499E-02  0.0000000E+00 -0.5050505E-02  0.3923907E-09  0.0000000E+00  0.2500627E-06
 -0.3353842E-02  0.0000000E+00 -0.5050505E-02  0.3490909E-09  0.0000000E+00  0.2508084E-06
 -0.2978990E-02  0.0000000E+00 -0.5050505E-02  0.3041947E-09  0.0000000E+00  0.2514654E-06
 -0.2347676E-02  0.0000000E+00 -0.5050505E-02  0.2578924E-09  0.0000000E+00  0.2520307E-06
 -0.1716362E-02  0.0000000E+00 -0.5050505E-02  0.2103812E-09  0.0000000E+00  0.2525016E-06
 -0.1025842E-02  0.0000000E+00 -0.5050505E-02  0.1618650E-09  0.0000000E+00  0.2528760E-06
  0.2367855E-03  0.0000000E+00 -0.5050505E-02  0.1125532E-09  0.0000000E+00  0.2531520E-06
  0.1499413E-02  0.0000000E+00 -0.5050505E-02  0.6266090E-10  0.0000000E+00  0.2533282E-06
  0.2762042E-02  0.0000000E+00 -0.5050505E-02  0.1240614E-10  0.0000000E+00  0.2534037E-06
 -0.5050505E-02  0.0000000E+00 -0.5050505E-02 -0.3793403E-10  0.0000000E+00  0.2533780E-06
 -0.5050505E-02  0.0000000E+00 -0.5050505E-02 -0.8821846E-10  0.0000000E+00  0.2532511E-06
 -0.5050505E-02  0.0000000E+00 -0.5050505E-02 -0.1382761E-09  0.0000000E+00  0.2530233E-06
 -0.5050505E-02  0.0000000E+00 -0.5050505E-02 -0.1878037E-09  0.0000000E+00  0.2526954E-06
 -0.5050505E-02  0.0000000E+00 -0.5050505E-02 -0.2366126E-09  0.0000000E+00  0.2522686E-06
 -0.5050505E-02  0.0000000E+00 -0.5050505E-02 -0.2844827E-09  0.0000000E+00  0.2517445E-06
 -0.5050505E-02  0.0000000E+00 -0.5050505E-02 -0.3311962E-09  0.0000000E+00  0.2511254E-06
 -0.5050504E-02  0.0000000E+00 -0.5050505E-02 -0.3765809E-09  0.0000000E+00  0.2504136E-06
 -0.5050501E-02  0.0000000E+00 -0.5050505E-02 -0.4204302E-09  0.0000000E+00  0.2496120E-06
 -0.5050495E-02  0.0000000E+00 -0.5050505E-02 -0.4625549E-09  0.0000000E+00  0.2487241E-06
 -0.5050482E-02  0.0000000E+00 -0.5050505E-02 -0.5027872E-09  0.0000000E+00  0.2477532E-06
 -0.5050449E-02  0.0000000E+00 -0.5050505E-02 -0.5409570E-09  0.0000000E+00  0.2467036E-06
 -0.5050376E-02  0.0000000E+00 -0.5050505E-02 -0.5769051E-09  0.0000000E+00  0.2455794E-06
 -0.5050299E-02  0.0000000E+00 -0.5050505E-02 -0.6104861E-09  0.0000000E+00  0.2443853E-06
 -0.5050178E-02  0.0000000E+00 -0.5050505E-02 -0.6415657E-09  0.0000000E+00  0.2431261E-06
 -0.5050018E-02  0.0000000E+00 -0.5050505E-02 -0.6700204E-09  0.0000000E+00  0.2418071E-06
 -0.5049710E-02  0.0000000E+00 -0.5050505E-02 -0.6957391E-09  0.0000000E+00  0.2404336E-06
 -0.5049253E-02  0.0000000E+00 -0.5050505E-02 -0.7186236E-09  0.0000000E+00  0.2390112E-06
 -0.5048636E-02  0.0000000E+00 -0.5050505E-02 -0.7385885E-09  0.0000000E+00  0.2375457E-06
 -0.5047442E-02  0.0000000E+00 -0.5050505E-02 -0.7555612E-09  0.0000000E+00  0.2360431E-06
 -0.5045727E-02  0.0000000E+00 -0.5050505E-02 -0.7694819E-09  0.0000000E+00  0.2345094E-06
 -0.5043261E-02  0.0000000E+00 -0.5050505E-02 -0.7803037E-09  0.0000000E+00  0.2329509E-06
 -0.5038714E-02  0.0000000E+00 -0.5050505E-02 -0.7879922E-09  0.0000000E+00  0.2313737E-06
 -0.5032318E-02  0.0000000E+00 -0.5050505E-02 -0.7925251E-09  0.0000000E+00  0.2297842E-06
 -0.5022454E-02  0.0000000E+00 -0.5050505E-02 -0.7938923E-09  0.0000000E+00  0.2281888E-06
 -0.5012589E-02  0.0000000E+00 -0.5050505E-02 -0.7920945E-09  0.0000000E+00  0.2265938E-06
 -0.5002725E-02  0.0000000E+00 -0.5050505E-02 -0.7871429E-09  0.0000000E+00  0.2250056E-06
 -0.4992860E-02  0.0000000E+00 -0.5050505E-02 -0.7790582E-09  0.0000000E+00  0.2234305E-06
 -0.4976523E-02  0.0000000E+00 -0.5050505E-02 -0.7678694E-09  0.0000000E+00  0.2218748E-06
 -0.4956794E-02  0.0000000E+00 -0.5050505E-02 -0.7536117E-09  0.0000000E+00  0.2203447E-06
 -0.4937066E-02  0.0000000E+00 -0.5050505E-02 -0.7363247E-09  0.0000000E+00  0.2188463E-06
 -0.4906239E-02  0.0000000E+00 -0.5050505E-02 -0.7160491E-09  0.0000000E+00  0.2173857E-06
 -0.4866782E-02  0.0000000E+00 -0.5050505E-02 -0.6928221E-09  0.0000000E+00  0.2159689E-06
 -0.4827325E-02  0.0000000E+00 -0.5050505E-02 -0.6666714E-09  0.0000000E+00  0.2146017E-06
 -0.4769372E-02  0.0000000E+00 -0.5050505E-02 -0.6376052E-09  0.0000000E+00  0.2132900E-06
 -0.4690458E-02  0.0000000E+00 -0.5050505E-02 -0.6055969E-09  0.0000000E+00  0.2120398E-06
 -0.4611543E-02  0.0000000E+00 -0.5050505E-02 -0.5705609E-09  0.0000000E+00  0.2108569E-06
 -0.4503035E-02  0.0000000E+00 -0.5050505E-02 -0.5323119E-09  0.0000000E+00  0.2097478E-06
 -0.4345206E-02  0.0000000E+00 -0.5050505E-02 -0.4904937E-09  0.0000000E+00  0.2087192E-06
 -0.4187378E-02  0.0000000E+00 -0.5050505E-02 -0.4444505E-09  0.0000000E+00  0.2077790E-06
 -0.3985156E-02  0.0000000E+00 -0.5050505E-02 -0.3929814E-09  0.0000000E+00  0.2069368E-06
 -0.3669499E-02  0.0000000E+00 -0.5050505E-02 -0.3338434E-09  0.0000000E+00  0.2062059E-06
 -0.3353842E-02  0.0000000E+00 -0.5050505E-02 -0.2626816E-09  0.0000000E+00  0.2056059E-06
 -0.2978990E-02  0.0000000E+00 -0.5050505E-02 -0.1705440E-09  0.0000000E+00  0.2051703E-06
 -0.2347676E-02  0.0000000E+00 -0.5050505E-02 -0.3760534E-10  0.0000000E+00  0.2049609E-06
 -0.1716362E-02  0.0000000E+00 -0.5050505E-02  0.1840858E-09  0.0000000E+00  0.2051082E-06
 -0.1025842E-02  0.0000000E+00 -0.5050505E-02  0.6234255E-09  0.0000000E+00  0.2059203E-06
  0.2367855E-03  0.0000000E+00 -0.5050505E-02  0.1664472E-08  0.0000000E+00  0.2082212E-06
  0.1499413E-02  0.0000000E+00 -0.5050505E-02  0.4576325E-08  0.0000000E+00  0.2144974E-06
  0.5287294E-02  0.0000000E+00 -0.5050505E-02  0.7571786E-07  0.0000000E+00  0.1713733E-06
 -0.5050505E-02  0.0000000E+00 -0.5050505E-02  0.7013017E-10  0.0000000E+00  0.2067600E-06
 -0.5050505E-02  0.0000000E+00 -0.5050505E-02  0.2111564E-09  0.0000000E+00  0.2068549E-06
 -0.5050505E-02  0.0000000E+00 -0.5050505E-02  0.3517370E-09  0.0000000E+00  0.2070448E-06
 -0.5050505E-02  0.0000000E+00 -0.5050505E-02  0.4908033E-09  0.0000000E+00  0.2073289E-06
 -0.5050505E-02  0.0000000E+00 -0.5050505E-02  0.6279508E-09  0.0000000E+00  0.2077062E-06
 -0.5050505E-02  0.0000000E+00 -0.5050505E-02  0.7626709E-09  0.0000000E+00  0.2081752E-06
 -0.5050504E-02  0.0000000E+00 -0.5050505E-02  0.8944256E-09  0.0000000E+00  0.2087340E-06
 -0.5050501E-02  0.0000000E+00 -0.5050505E-02  0.1022761E-08  0.0000000E+00  0.2093806E-06
 -0.5050495E-02  0.0000000E+00 -0.5050505E-02  0.1147159E-08  0.0000000E+00  0.2101123E-06
 -0.5050482E-02  0.0000000E+00 -0.5050505E-02  0.1267121E-08  0.0000000E+00  0.2109265E-06
 -0.5050449E-02  0.0000000E+00 -0.5050505E-02  0.1382188E-08  0.0000000E+00  0.2118200E-06
 -0.5050376E-02  0.0000000E+00 -0.5050505E-02  0.1491895E-08  0.0000000E+00  0.2127893E-06
 -0.5050299E-02  0.0000000E+00 -0.5050505E-02  0.1595792E-08  0.0000000E+00  0.2138306E-06
 -0.5050178E-02  0.0000000E+00 -0.5050505E-02  0.1693454E-08  0.0000000E+00  0.2149399E-06
 -0.5050018E-02  0.0000000E+00 -0.5050505E-02  0.1784475E-08  0.0000000E+00  0.2161128E-06
 -0.5049710E-02  0.0000000E+00 -0.5050505E-02  0.1868470E-08  0.0000000E+00  0.2173448E-06
 -0.5049253E-02  0.0000000E+00 -0.5050505E-02  0.1945076E-08  0.0000000E+00  0.2186310E-06
 -0.5048636E-02  0.0000000E+00 -0.5050505E-02  0.2013955E-08  0.0000000E+00  0.2199662E-06
 -0.5047442E-02  0.0000000E+00 -0.5050505E-02  0.2074798E-08  0.0000000E+00  0.2213452E-06
 -0.5045727E-02  0.0000000E+00 -0.5050505E-02  0.2127322E-08  0.0000000E+00  0.2227625E-06
 -0.5043261E-02  0.0000000E+00 -0.5050505E-02  0.2171277E-08  0.0000000E+00  0.2242123E-06
 -0.5038714E-02  0.0000000E+00 -0.5050505E-02  0.2206440E-08  0.0000000E+00  0.2256888E-06
 -0.5032318E-02  0.0000000E+00 -0.5050505E-02  0.2232625E-08  0.0000000E+00  0.2271861E-06
 -0.5022454E-02  0.0000000E+00 -0.5050505E-02  0.2249677E-08  0.0000000E+00  0.2286979E-06
 -0.5012589E-02  0.0000000E+00 -0.5050505E-02  0.2257479E-08  0.0000000E+00  0.2302182E-06
 -0.5002725E-02  0.0000000E+00 -0.5050505E-02  0.2255950E-08  0.0000000E+00  0.2317405E-06
 -0.4992860E-02  0.0000000E+00 -0.5050505E-02  0.2245046E-08  0.0000000E+00  0.2332588E-06
 -0.4976523E-02  0.0000000E+00 -0.5050505E-02  0.2224760E-08  0.0000000E+00  0.2347665E-06
 -0.4956794E-02  0.0000000E+00 -0.5050505E-02  0.2195129E-08  0.0000000E+00  0.2362574E-06
 -0.4937066E-02  0.0000000E+00 -0.5050505E-02  0.2156225E-08  0.0000000E+00  0.2377252E-06
 -0.4906239E-02  0.0000000E+00 -0.5050505E-02  0.2108163E-08  0.0000000E+00  0.2391637E-06
 -0.4866782E-02  0.0000000E+00 -0.5050505E-02  0.2051099E-08  0.0000000E+00  0.2405667E-06
 -0.4827325E-02  0.0000000E+00 -0.5050505E-02  0.1985227E-08  0.0000000E+00  0.2419283E-06
 -0.4769372E-02  0.0000000E+00 -0.5050505E-02  0.1910784E-08  0.0000000E+00  0.2432426E-06
 -0.4690458E-02  0.0000000E+00 -0.5050505E-02  0.1828046E-08  0.0000000E+00  0.2445039E-06
 -0.4611543E-02  0.0000000E+00 -0.5050505E-02  0.1737328E-08  0.0000000E+00  0.2457067E-06
 -0.4503035E-02  0.0000000E+00 -0.5050505E-02  0.1638984E-08  0.0000000E+00  0.2468457E-06
 -0.4345206E-02  0.0000000E+00 -0.5050505E-02  0.1533403E-08  0.0000000E+00  0.2479159E-06
 -0.4187378E-02  0.0000000E+00 -0.5050505E-02  0.1421011E-08  0.0000000E+00  0.2489127E-06
 -0.3985156E-02  0.0000000E+00 -0.5050505E-02  0.1302269E-08  0.0000000E+00  0.2498314E-06
 -0.3669499E-02  0.0000000E+00 -0.5050505E-02  0.1177668E-08  0.0000000E+00  0.2506681E-06
 -0.3353842E-02  0.0000000E+00 -0.5050505E-02  0.1047727E-08  0.0000000E+00  0.2514189E-06
 -0.2978990E-02  0.0000000E+00 -0.5050505E-02  0.9129931E-09  0.0000000E+00  0.2520805E-06
 -0.2347676E-02  0.0000000E+00 -0.5050505E-02  0.7740384E-09  0.0000000E+00  0.2526497E-06
 -0.1716362E-02  0.0000000E+00 -0.5050505E-02  0.6314547E-09  0.0000000E+00  0.2531239E-06
 -0.1025842E-02  0.0000000E+00 -0.5050505E-02  0.4858530E-09  0.0000000E+00  0.2535010E-06
  0.2367855E-03  0.0000000E+00 -0.5050505E-02  0.3378626E-09  0.0000000E+00  0.2537790E-06
  0.1499413E-02  0.0000000E+00 -0.5050505E-02  0.1881323E-09  0.0000000E+00  0.2539565E-06
  0.2762042E-02  0.0000000E+00 -0.5050505E-02  0.3732690E-10  0.0000000E+00  0.2540327E-06
 -0.5050505E-02  0.0000000E+00 -0.5050505E-02 -0.1137632E-09  0.0000000E+00  0.2540070E-06
 -0.5050505E-02  0.0000000E+00 -0.5050505E-02 -0.2646780E-09  0.0000000E+00  0.2538794E-06
 -0.5050505E-02  0.0000000E+00 -0.5050505E-02 -0.4148996E-09  0.0000000E+00  0.2536503E-06
 -0.5050505E-02  0.0000000E+00 -0.5050505E-02 -0.5635404E-09  0.0000000E+00  0.2533203E-06
 -0.5050505E-02  0.0000000E+00 -0.5050505E-02 -0.7100088E-09  0.0000000E+00  0.2528908E-06
 -0.5050505E-02  0.0000000E+00 -0.5050505E-02 -0.8536714E-09  0.0000000E+00  0.2523634E-06
 -0.5050505E-02  0.0000000E+00 -0.5050505E-02 -0.9938669E-09  0.0000000E+00  0.2517403E-06
 -0.5050504E-02  0.0000000E+00 -0.5050505E-02 -0.1130062E-08  0.0000000E+00  0.2510239E-06
 -0.5050501E-02  0.0000000E+00 -0.5050505E-02 -0.1261652E-08  0.0000000E+00  0.2502172E-06
 -0.5050495E-02  0.0000000E+00 -0.5050505E-02 -0.1388069E-08  0.0000000E+00  0.2493234E-06
 -0.5050482E-02  0.0000000E+00 -0.5050505E-02 -0.1508801E-08  0.0000000E+00  0.2483463E-06
 -0.5050449E-02  0.0000000E+00 -0.5050505E-02 -0.1623343E-08  0.0000000E+00  0.2472899E-06
 -0.5050376E-02  0.0000000E+00 -0.5050505E-02 -0.1731217E-08  0.0000000E+00  0.2461584E-06
 -0.5050299E-02  0.0000000E+00 -0.5050505E-02 -0.1831986E-08  0.0000000E+00  0.2449565E-06
 -0.5050178E-02  0.0000000E+00 -0.5050505E-02 -0.1925246E-08  0.0000000E+00  0.2436892E-06
 -0.5050018E-02  0.0000000E+00 -0.5050505E-02 -0.2010628E-08  0.0000000E+00  0.2423617E-06
 -0.5049710E-02  0.0000000E+00 -0.5050505E-02 -0.2087799E-08  0.0000000E+00  0.2409793E-06
 -0.5049253E-02  0.0000000E+00 -0.5050505E-02 -0.2156463E-08  0.0000000E+00  0.2395478E-06
 -0.5048636E-02  0.0000000E+00 -0.5050505E-02 -0.2216366E-08  0.0000000E+00  0.2380729E-06
 -0.5047442E-02  0.0000000E+00 -0.5050505E-02 -0.2267288E-08  0.0000000E+00  0.2365607E-06
 -0.5045727E-02  0.0000000E+00 -0.5050505E-02 -0.2309052E-08  0.0000000E+00  0.2350172E-06
 -0.5043261E-02  0.0000000E+00 -0.5050505E-02 -0.2341516E-08  0.0000000E+00  0.2334486E-06
 -0.5038714E-02  0.0000000E+00 -0.5050505E-02 -0.2364579E-08  0.0000000E+00  0.2318614E-06
 -0.5032318E-02  0.0000000E+00 -0.5050505E-02 -0.2378173E-08  0.0000000E+00  0.2302618E-06
 -0.5022454E-02  0.0000000E+00 -0.5050505E-02 -0.2382269E-08  0.0000000E+00  0.2286562E-06
 -0.5012589E-02  0.0000000E+00 -0.5050505E-02 -0.2376870E-08  0.0000000E+00  0.2270511E-06
 -0.5002725E-02  0.0000000E+00 -0.5050505E-02 -0.2362011E-08  0.0000000E+00  0.2254528E-06
 -0.4992860E-02  0.0000000E+00 -0.5050505E-02 -0.2337754E-08  0.0000000E+00  0.2238678E-06
 -0.4976523E-02  0.0000000E+00 -0.5050505E-02 -0.2304188E-08  0.0000000E+00  0.2223022E-06
 -0.4956794E-02  0.0000000E+00 -0.5050505E-02 -0.2261421E-08  0.0000000E+00  0.2207623E-06
 -0.4937066E-02  0.0000000E+00 -0.5050505E-02 -0.2209575E-08  0.0000000E+00  0.2192543E-06
 -0.4906239E-02  0.0000000E+00 -0.5050505E-02 -0.2148776E-08  0.0000000E+00  0.2177843E-06
 -0.4866782E-02  0.0000000E+00 -0.5050505E-02 -0.2079143E-08  0.0000000E+00  0.2163582E-06
 -0.4827325E-02  0.0000000E+00 -0.5050505E-02 -0.2000767E-08  0.0000000E+00  0.2149819E-06
 -0.4769372E-02  0.0000000E+00 -0.5050505E-02 -0.1913689E-08  0.0000000E+00  0.2136612E-06
 -0.4690458E-02  0.0000000E+00 -0.5050505E-02 -0.1817853E-08  0.0000000E+00  0.2124020E-06
 -0.4611543E-02  0.0000000E+00 -0.5050505E-02 -0.1713043E-08  0.0000000E+00  0.2112101E-06
 -0.4503035E-02  0.0000000E+00 -0.5050505E-02 -0.1598775E-08  0.0000000E+00  0.2100916E-06
 -0.4345206E-02  0.0000000E+00 -0.5050505E-02 -0.1474109E-08  0.0000000E+00  0.2090527E-06
 -0.4187378E-02  0.0000000E+00 -0.5050505E-02 -0.1337325E-08  0.0000000E+00  0.2081005E-06
 -0.3985156E-02  0.0000000E+00 -0.5050505E-02 -0.1185318E-08  0.0000000E+00  0.2072432E-06
 -0.3669499E-02  0.0000000E+00 -0.5050505E-02 -0.1012431E-08  0.0000000E+00  0.2064908E-06
 -0.3353842E-02  0.0000000E+00 -0.5050505E-02 -0.8080865E-09  0.0000000E+00  0.2058564E-06
 -0.2978990E-02  0.0000000E+00 -0.5050505E-02 -0.5517049E-09  0.0000000E+00  0.2053579E-06
 -0.2347676E-02  0.0000000E+00 -0.5050505E-02 -0.2011365E-09  0.0000000E+00  0.2050182E-06
 -0.1716362E-02  0.0000000E+00 -0.5050505E-02  0.3351075E-09  0.0000000E+00  0.2048592E-06
 -0.1025842E-02  0.0000000E+00 -0.5050505E-02  0.1269684E-08  0.0000000E+00  0.2048534E-06
  0.2367855E-03  0.0000000E+00 -0.5050505E-02  0.3127141E-08  0.0000000E+00  0.2046864E-06
  0.1499413E-02  0.0000000E+00 -0.5050505E-02  0.7280692E-08  0.0000000E+00  0.2026362E-06
  0.5287294E-02  0.0000000E+00 -0.5050505E-02  0.1748798E-07  0.0000000E+00  0.1903747E-06
 -0.5050505E-02  0.0000000E+00 -0.5050505E-02  0.1172367E-09  0.0000000E+00  0.2074064E-06
 -0.5050505E-02  0.0000000E+00 -0.5050505E-02  0.3525836E-09  0.0000000E+00  0.2075026E-06
 -0.5050505E-02  0.0000000E+00 -0.5050505E-02  0.5871597E-09  0.0000000E+00  0.2076949E-06
 -0.5050505E-02  0.0000000E+00 -0.5050505E-02  0.8192671E-09  0.0000000E+00  0.2079825E-06
 -0.5050505E-02  0.0000000E+00 -0.5050505E-02  0.1048173E-08  0.0000000E+00  0.2083645E-06
 -0.5050505E-02  0.0000000E+00 -0.5050505E-02  0.1273045E-08  0.0000000E+00  0.2088392E-06
 -0.5050504E-02  0.0000000E+00 -0.5050505E-02  0.1492983E-08  0.0000000E+00  0.2094049E-06
 -0.5050501E-02  0.0000000E+00 -0.5050505E-02  0.1707204E-08  0.0000000E+00  0.2100595E-06
 -0.5050495E-02  0.0000000E+00 -0.5050505E-02  0.1914860E-08  0.0000000E+00  0.2108003E-06
 -0.5050482E-02  0.0000000E+00 -0.5050505E-02  0.2115122E-08  0.0000000E+00  0.2116246E-06
 -0.5050449E-02  0.0000000E+00 -0.5050505E-02  0.2307213E-08  0.0000000E+00  0.2125291E-06
 -0.5050376E-02  0.0000000E+00 -0.5050505E-02  0.2490360E-08  0.0000000E+00  0.2135104E-06
 -0.5050299E-02  0.0000000E+00 -0.5050505E-02  0.2663816E-08  0.0000000E+00  0.2145647E-06
 -0.5050178E-02  0.0000000E+00 -0.5050505E-02  0.2826869E-08  0.0000000E+00  0.2156878E-06
 -0.5050018E-02  0.0000000E+00 -0.5050505E-02  0.2978841E-08  0.0000000E+00  0.2168755E-06
 -0.5049710E-02  0.0000000E+00 -0.5050505E-02  0.3119089E-08  0.0000000E+00  0.2181229E-06
 -0.5049253E-02  0.0000000E+00 -0.5050505E-02  0.3247006E-08  0.0000000E+00  0.2194252E-06
 -0.5048636E-02  0.0000000E+00 -0.5050505E-02  0.3362030E-08  0.0000000E+00  0.2207773E-06
 -0.5047442E-02  0.0000000E+00 -0.5050505E-02  0.3463643E-08  0.0000000E+00  0.2221738E-06
 -0.5045727E-02  0.0000000E+00 -0.5050505E-02  0.3551373E-08  0.0000000E+00  0.2236090E-06
 -0.5043261E-02  0.0000000E+00 -0.5050505E-02  0.3624799E-08  0.0000000E+00  0.2250773E-06
 -0.5038714E-02  0.0000000E+00 -0.5050505E-02  0.3683552E-08  0.0000000E+00  0.2265727E-06
 -0.5032318E-02  0.0000000E+00 -0.5050505E-02  0.3727318E-08  0.0000000E+00  0.2280891E-06
 -0.5022454E-02  0.0000000E+00 -0.5050505E-02  0.3755840E-08  0.0000000E+00  0.2296203E-06
 -0.5012589E-02  0.0000000E+00 -0.5050505E-02  0.3768920E-08  0.0000000E+00  0.2311602E-06
 -0.5002725E-02  0.0000000E+00 -0.5050505E-02  0.3766422E-08  0.0000000E+00  0.2327023E-06
 -0.4992860E-02  0.0000000E+00 -0.5050505E-02  0.3748271E-08  0.0000000E+00  0.2342402E-06
 -0.4976523E-02  0.0000000E+00 -0.5050505E-02  0.3714458E-08  0.0000000E+00  0.2357675E-06
 -0.4956794E-02  0.0000000E+00 -0.5050505E-02  0.3665040E-08  0.0000000E+00  0.2372779E-06
 -0.4937066E-02  0.0000000E+00 -0.5050505E-02  0.3600139E-08  0.0000000E+00  0.2387650E-06
 -0.4906239E-02  0.0000000E+00 -0.5050505E-02  0.3519946E-08  0.0000000E+00  0.2402224E-06
 -0.4866782E-02  0.0000000E+00 -0.5050505E-02  0.3424718E-08  0.0000000E+00  0.2416440E-06
 -0.4827325E-02  0.0000000E+00 -0.5050505E-02  0.3314782E-08  0.0000000E+00  0.2430236E-06
 -0.4769372E-02  0.0000000E+00 -0.5050505E-02  0.3190531E-08  0.0000000E+00  0.2443553E-06
 -0.4690458E-02  0.0000000E+00 -0.5050505E-02  0.3052426E-08  0.0000000E+00  0.2456334E-06
 -0.4611543E-02  0.0000000E+00 -0.5050505E-02  0.2900992E-08  0.0000000E+00  0.2468523E-06
 -0.4503035E-02  0.0000000E+00 -0.5050505E-02  0.2736820E-08  0.0000000E+00  0.2480066E-06
 -0.4345206E-02  0.0000000E+00 -0.5050505E-02  0.2560560E-08  0.0000000E+00  0.2490913E-06
 -0.4187378E-02  0.0000000E+00 -0.5050505E-02  0.2372925E-08  0.0000000E+00  0.2501015E-06
 -0.3985156E-02  0.0000000E+00 -0.5050505E-02  0.2174680E-08  0.0000000E+00  0.2510328E-06
 -0.3669499E-02  0.0000000E+00 -0.5050505E-02  0.1966647E-08  0.0000000E+00  0.2518809E-06
 -0.3353842E-02  0.0000000E+00 -0.5050505E-02  0.1749694E-08  0.0000000E+00  0.2526420E-06
 -0.2978990E-02  0.0000000E+00 -0.5050505E-02  0.1524736E-08  0.0000000E+00  0.2533126E-06
 -0.2347676E-02  0.0000000E+00 -0.5050505E-02  0.1292725E-08  0.0000000E+00  0.2538898E-06
 -0.1716362E-02  0.0000000E+00 -0.5050505E-02  0.1054650E-08  0.0000000E+00  0.2543706E-06
 -0.1025842E-02  0.0000000E+00 -0.5050505E-02  0.8115321E-09  0.0000000E+00  0.2547530E-06
  0.2367855E-03  0.0000000E+00 -0.5050505E-02  0.5644206E-09  0.0000000E+00  0.2550351E-06
  0.1499413E-02  0.0000000E+00 -0.5050505E-02  0.3144057E-09  0.0000000E+00  0.2552153E-06
  0.2762042E-02  0.0000000E+00 -0.5050505E-02  0.6262505E-10  0.0000000E+00  0.2552928E-06
 -0.5050505E-02  0.0000000E+00 -0.5050505E-02 -0.1896866E-09  0.0000000E+00  0.2552672E-06
 -0.5050505E-02  0.0000000E+00 -0.5050505E-02 -0.4416971E-09  0.0000000E+00  0.2551382E-06
 -0.5050505E-02  0.0000000E+00 -0.5050505E-02 -0.6925126E-09  0.0000000E+00  0.2549063E-06
 -0.5050505E-02  0.0000000E+00 -0.5050505E-02 -0.9407149E-09  0.0000000E+00  0.2545723E-06
 -0.5050505E-02  0.0000000E+00 -0.5050505E-02 -0.1185266E-08  0.0000000E+00  0.2541374E-06
 -0.5050505E-02  0.0000000E+00 -0.5050505E-02 -0.1425139E-08  0.0000000E+00  0.2536033E-06
 -0.5050505E-02  0.0000000E+00 -0.5050505E-02 -0.1659235E-08  0.0000000E+00  0.2529722E-06
 -0.5050504E-02  0.0000000E+00 -0.5050505E-02 -0.1886628E-08  0.0000000E+00  0.2522466E-06
 -0.5050501E-02  0.0000000E+00 -0.5050505E-02 -0.2106334E-08  0.0000000E+00  0.2514295E-06
 -0.5050495E-02  0.0000000E+00 -0.5050505E-02 -0.2317403E-08  0.0000000E+00  0.2505242E-06
 -0.5050482E-02  0.0000000E+00 -0.5050505E-02 -0.2518972E-08  0.0000000E+00  0.2495345E-06
 -0.5050449E-02  0.0000000E+00 -0.5050505E-02 -0.2710199E-08  0.0000000E+00  0.2484644E-06
 -0.5050376E-02  0.0000000E+00 -0.5050505E-02 -0.2890290E-08  0.0000000E+00  0.2473184E-06
 -0.5050299E-02  0.0000000E+00 -0.5050505E-02 -0.3058514E-08  0.0000000E+00  0.2461010E-06
 -0.5050178E-02  0.0000000E+00 -0.5050505E-02 -0.3214196E-08  0.0000000E+00  0.2448174E-06
 -0.5050018E-02  0.0000000E+00 -0.5050505E-02 -0.3356721E-08  0.0000000E+00  0.2434728E-06
 -0.5049710E-02  0.0000000E+00 -0.5050505E-02 -0.3485532E-08  0.0000000E+00  0.2420727E-06
 -0.5049253E-02  0.0000000E+00 -0.5050505E-02 -0.3600138E-08  0.0000000E+00  0.2406228E-06
 -0.5048636E-02  0.0000000E+00 -0.5050505E-02 -0.3700113E-08  0.0000000E+00  0.2391291E-06
 -0.5047442E-02  0.0000000E+00 -0.5050505E-02 -0.3785094E-08  0.0000000E+00  0.2375975E-06
 -0.5045727E-02  0.0000000E+00 -0.5050505E-02 -0.3854784E-08  0.0000000E+00  0.2360343E-06
 -0.5043261E-02  0.0000000E+00 -0.5050505E-02 -0.3908949E-08  0.0000000E+00  0.2344458E-06
 -0.5038714E-02  0.0000000E+00 -0.5050505E-02 -0.3947419E-08  0.0000000E+00  0.2328384E-06
 -0.5032318E-02  0.0000000E+00 -0.5050505E-02 -0.3970087E-08  0.0000000E+00  0.2312186E-06
 -0.5022454E-02  0.0000000E+00 -0.5050505E-02 -0.3976902E-08  0.0000000E+00  0.2295927E-06
 -0.5012589E-02  0.0000000E+00 -0.5050505E-02 -0.3967874E-08  0.0000000E+00  0.2279673E-06
 -0.5002725E-02  0.0000000E+00 -0.5050505E-02 -0.3943062E-08  0.0000000E+00  0.2263489E-06
 -0.4992860E-02  0.0000000E+00 -0.5050505E-02 -0.3902577E-08  0.0000000E+00  0.2247438E-06
 -0.4976523E-02  0.0000000E+00 -0.5050505E-02 -0.3846571E-08  0.0000000E+00  0.2231584E-06
 -0.4956794E-02  0.0000000E+00 -0.5050505E-02 -0.3775231E-08  0.0000000E+00  0.2215990E-06
 -0.4937066E-02  0.0000000E+00 -0.5050505E-02 -0.3688770E-08  0.0000000E+00  0.2200718E-06
 -0.4906239E-02  0.0000000E+00 -0.5050505E-02 -0.3587411E-08  0.0000000E+00  0.2185829E-06
 -0.4866782E-02  0.0000000E+00 -0.5050505E-02 -0.3471373E-08  0.0000000E+00  0.2171383E-06
 -0.4827325E-02  0.0000000E+00 -0.5050505E-02 -0.3340839E-08  0.0000000E+00  0.2157439E-06
 -0.4769372E-02  0.0000000E+00 -0.5050505E-02 -0.3195921E-08  0.0000000E+00  0.2144053E-06
 -0.4690458E-02  0.0000000E+00 -0.5050505E-02 -0.3036602E-08  0.0000000E+00  0.2131283E-06
 -0.4611543E-02  0.0000000E+00 -0.5050505E-02 -0.2862643E-08  0.0000000E+00  0.2119186E-06
 -0.4503035E-02  0.0000000E+00 -0.5050505E-02 -0.2673446E-08  0.0000000E+00  0.2107816E-06
 -0.4345206E-02  0.0000000E+00 -0.5050505E-02 -0.2467814E-08  0.0000000E+00  0.2097231E-06
 -0.4187378E-02  0.0000000E+00 -0.5050505E-02 -0.2243567E-08  0.0000000E+00  0.2087487E-06
 -0.3985156E-02  0.0000000E+00 -0.5050505E-02 -0.1996857E-08  0.0000000E+00  0.2078643E-06
 -0.3669499E-02  0.0000000E+00 -0.5050505E-02 -0.1720980E-08  0.0000000E+00  0.2070756E-06
 -0.3353842E-02  0.0000000E+00 -0.5050505E-02 -0.1404209E-08  0.0000000E+00  0.2063877E-06
 -0.2978990E-02  0.0000000E+00 -0.5050505E-02 -0.1025869E-08  0.0000000E+00  0.2058022E-06
 -0.2347676E-02  0.0000000E+00 -0.5050505E-02 -0.5493181E-09  0.0000000E+00  0.2053106E-06
 -0.1716362E-02  0.0000000E+00 -0.5050505E-02  0.8977945E-10  0.0000000E+00  0.2048736E-06
 -0.1025842E-02  0.0000000E+00 -0.5050505E-02  0.9969452E-09  0.0000000E+00  0.2043674E-06
  0.2367855E-03  0.0000000E+00 -0.5050505E-02  0.2304730E-08  0.0000000E+00  0.2034579E-06
  0.1499413E-02  0.0000000E+00 -0.5050505E-02  0.3964915E-08  0.0000000E+00  0.2014053E-06
  0.5287294E-02  0.0000000E+00 -0.5050505E-02  0.4551320E-08  0.0000000E+00  0.1974624E-06
 -0.5050505E-02  0.0000000E+00 -0.5050505E-02  0.1648628E-09  0.0000000E+00  0.2083780E-06
 -0.5050505E-02  0.0000000E+00 -0.5050505E-02  0.4954779E-09  0.0000000E+00  0.2084760E-06
 -0.5050505E-02  0.0000000E+00 -0.5050505E-02  0.8249357E-09  0.0000000E+00  0.2086718E-06
 -0.5050505E-02  0.0000000E+00 -0.5050505E-02  0.1150988E-08  0.0000000E+00  0.2089648E-06
 -0.5050505E-02  0.0000000E+00 -0.5050505E-02  0.1472555E-08  0.0000000E+00  0.2093537E-06
 -0.5050505E-02  0.0000000E+00 -0.5050505E-02  0.1788467E-08  0.0000000E+00  0.2098372E-06
 -0.5050504E-02  0.0000000E+00 -0.5050505E-02  0.2097470E-08  0.0000000E+00  0.2104133E-06
 -0.5050501E-02  0.0000000E+00 -0.5050505E-02  0.2398441E-08  0.0000000E+00  0.2110798E-06
 -0.5050495E-02  0.0000000E+00 -0.5050505E-02  0.2690197E-08  0.0000000E+00  0.2118342E-06
 -0.5050482E-02  0.0000000E+00 -0.5050505E-02  0.2971579E-08  0.0000000E+00  0.2126737E-06
 -0.5050449E-02  0.0000000E+00 -0.5050505E-02  0.3241489E-08  0.0000000E+00  0.2135949E-06
 -0.5050376E-02  0.0000000E+00 -0.5050505E-02  0.3498844E-08  0.0000000E+00  0.2145943E-06
 -0.5050299E-02  0.0000000E+00 -0.5050505E-02  0.3742593E-08  0.0000000E+00  0.2156681E-06
 -0.5050178E-02  0.0000000E+00 -0.5050505E-02  0.3971738E-08  0.0000000E+00  0.2168121E-06
 -0.5050018E-02  0.0000000E+00 -0.5050505E-02  0.4185324E-08  0.0000000E+00  0.2180218E-06
 -0.5049710E-02  0.0000000E+00 -0.5050505E-02  0.4382447E-08  0.0000000E+00  0.2192925E-06
 -0.5049253E-02  0.0000000E+00 -0.5050505E-02  0.4562255E-08  0.0000000E+00  0.2206191E-06
 -0.5048636E-02  0.0000000E+00 -0.5050505E-02  0.4723957E-08  0.0000000E+00  0.2219966E-06
 -0.5047442E-02  0.0000000E+00 -0.5050505E-02  0.4866824E-08  0.0000000E+00  0.2234193E-06
 -0.5045727E-02  0.0000000E+00 -0.5050505E-02  0.4990192E-08  0.0000000E+00  0.2248816E-06
 -0.5043261E-02  0.0000000E+00 -0.5050505E-02  0.5093468E-08  0.0000000E+00  0.2263776E-06
 -0.5038714E-02  0.0000000E+00 -0.5050505E-02  0.5176132E-08  0.0000000E+00  0.2279014E-06
 -0.5032318E-02  0.0000000E+00 -0.5050505E-02  0.5237742E-08  0.0000000E+00  0.2294467E-06
 -0.5022454E-02  0.0000000E+00 -0.5050505E-02  0.5277935E-08  0.0000000E+00  0.2310072E-06
 -0.5012589E-02  0.0000000E+00 -0.5050505E-02  0.5296430E-08  0.0000000E+00  0.2325765E-06
 -0.5002725E-02  0.0000000E+00 -0.5050505E-02  0.5293035E-08  0.0000000E+00  0.2341483E-06
 -0.4992860E-02  0.0000000E+00 -0.5050505E-02  0.5267644E-08  0.0000000E+00  0.2357159E-06
 -0.4976523E-02  0.0000000E+00 -0.5050505E-02  0.5220242E-08  0.0000000E+00  0.2372728E-06
 -0.4956794E-02  0.0000000E+00 -0.5050505E-02  0.5150905E-08  0.0000000E+00  0.2388125E-06
 -0.4937066E-02  0.0000000E+00 -0.5050505E-02  0.5059805E-08  0.0000000E+00  0.2403285E-06