title = "dataset feddes"
variables = "x", "y", "z", "vx", "vy", "vz"
zone t = "velocities, solution time =  2.500E+01 days        " i =   99, j =   99, k =    1,  f=point
 -0.5050505E-02  0.0000000E+00 -0.5050505E-02  0.3616953E-12  0.0000000E+00  0.5305408E-08
 -0.5050505E-02  0.0000000E+00 -0.5050505E-02  0.1324724E-11  0.0000000E+00  0.5307104E-08
 -0.5050505E-02  0.0000000E+00 -0.5050505E-02  0.2416056E-11  0.0000000E+00  0.5310866E-08
 -0.5050505E-02  0.0000000E+00 -0.5050505E-02  0.3463008E-11  0.0000000E+00  0.5316778E-08
 -0.5050505E-02  0.0000000E+00 -0.5050505E-02  0.4469659E-11  0.0000000E+00  0.5324756E-08
 -0.5050505E-02  0.0000000E+00 -0.5050505E-02  0.5444384E-11  0.0000000E+00  0.5334726E-08
 -0.5050504E-02  0.0000000E+00 -0.5050505E-02  0.6390910E-11  0.0000000E+00  0.5346629E-08
 -0.5050501E-02  0.0000000E+00 -0.5050505E-02  0.7309080E-11  0.0000000E+00  0.5360406E-08
 -0.5050495E-02  0.0000000E+00 -0.5050505E-02  0.8196995E-11  0.0000000E+00  0.5376000E-08
 -0.5050482E-02  0.0000000E+00 -0.5050505E-02  0.9051838E-11  0.0000000E+00  0.5393346E-08
 -0.5050449E-02  0.0000000E+00 -0.5050505E-02  0.9870436E-11  0.0000000E+00  0.5412376E-08
 -0.5050376E-02  0.0000000E+00 -0.5050505E-02  0.1064972E-10  0.0000000E+00  0.5433012E-08
 -0.5050299E-02  0.0000000E+00 -0.5050505E-02  0.1138654E-10  0.0000000E+00  0.5455173E-08
 -0.5050178E-02  0.0000000E+00 -0.5050505E-02  0.1207791E-10  0.0000000E+00  0.5478770E-08
 -0.5050018E-02  0.0000000E+00 -0.5050505E-02  0.1272105E-10  0.0000000E+00  0.5503710E-08
 -0.5049710E-02  0.0000000E+00 -0.5050505E-02  0.1331325E-10  0.0000000E+00  0.5529891E-08
 -0.5049253E-02  0.0000000E+00 -0.5050505E-02  0.1385205E-10  0.0000000E+00  0.5557211E-08
 -0.5048636E-02  0.0000000E+00 -0.5050505E-02  0.1433513E-10  0.0000000E+00  0.5585557E-08
 -0.5047442E-02  0.0000000E+00 -0.5050505E-02  0.1476042E-10  0.0000000E+00  0.5614818E-08
 -0.5045727E-02  0.0000000E+00 -0.5050505E-02  0.1512608E-10  0.0000000E+00  0.5644873E-08
 -0.5043261E-02  0.0000000E+00 -0.5050505E-02  0.1543040E-10  0.0000000E+00  0.5675603E-08
 -0.5038714E-02  0.0000000E+00 -0.5050505E-02  0.1567204E-10  0.0000000E+00  0.5706881E-08
 -0.5032318E-02  0.0000000E+00 -0.5050505E-02  0.1584977E-10  0.0000000E+00  0.5738582E-08
 -0.5022454E-02  0.0000000E+00 -0.5050505E-02  0.1596274E-10  0.0000000E+00  0.5770574E-08
 -0.5012589E-02  0.0000000E+00 -0.5050505E-02  0.1601023E-10  0.0000000E+00  0.5802728E-08
 -0.5002725E-02  0.0000000E+00 -0.5050505E-02  0.1599187E-10  0.0000000E+00  0.5834911E-08
 -0.4992860E-02  0.0000000E+00 -0.5050505E-02  0.1590755E-10  0.0000000E+00  0.5866991E-08
 -0.4976523E-02  0.0000000E+00 -0.5050505E-02  0.1575736E-10  0.0000000E+00  0.5898836E-08
 -0.4956794E-02  0.0000000E+00 -0.5050505E-02  0.1554177E-10  0.0000000E+00  0.5930312E-08
 -0.4937066E-02  0.0000000E+00 -0.5050505E-02  0.1526143E-10  0.0000000E+00  0.5961290E-08
 -0.4906239E-02  0.0000000E+00 -0.5050505E-02  0.1491729E-10  0.0000000E+00  0.5991639E-08
 -0.4866782E-02  0.0000000E+00 -0.5050505E-02  0.1451060E-10  0.0000000E+00  0.6021234E-08
 -0.4827325E-02  0.0000000E+00 -0.5050505E-02  0.1404285E-10  0.0000000E+00  0.6049949E-08
 -0.4769372E-02  0.0000000E+00 -0.5050505E-02  0.1351581E-10  0.0000000E+00  0.6077663E-08
 -0.4690458E-02  0.0000000E+00 -0.5050505E-02  0.1293146E-10  0.0000000E+00  0.6104260E-08
 -0.4611543E-02  0.0000000E+00 -0.5050505E-02  0.1229210E-10  0.0000000E+00  0.6129627E-08
 -0.4503035E-02  0.0000000E+00 -0.5050505E-02  0.1160021E-10  0.0000000E+00  0.6153654E-08
 -0.4345206E-02  0.0000000E+00 -0.5050505E-02  0.1085851E-10  0.0000000E+00  0.6176240E-08
 -0.4187378E-02  0.0000000E+00 -0.5050505E-02  0.1006988E-10  0.0000000E+00  0.6197287E-08
 -0.3985156E-02  0.0000000E+00 -0.5050505E-02  0.9237379E-11  0.0000000E+00  0.6216704E-08
 -0.3669499E-02  0.0000000E+00 -0.5050505E-02  0.8364107E-11  0.0000000E+00  0.6234405E-08
 -0.3353842E-02  0.0000000E+00 -0.5050505E-02  0.7453233E-11  0.0000000E+00  0.6250312E-08
 -0.2978990E-02  0.0000000E+00 -0.5050505E-02  0.6507749E-11  0.0000000E+00  0.6264352E-08
 -0.2347676E-02  0.0000000E+00 -0.5050505E-02  0.5530609E-11  0.0000000E+00  0.6276458E-08
 -0.1716362E-02  0.0000000E+00 -0.5050505E-02  0.4524760E-11  0.0000000E+00  0.6286570E-08
 -0.1025842E-02  0.0000000E+00 -0.5050505E-02  0.3493704E-11  0.0000000E+00  0.6294634E-08
  0.2367855E-03  0.0000000E+00 -0.5050505E-02  0.2442658E-11  0.0000000E+00  0.6300604E-08
  0.1499413E-02  0.0000000E+00 -0.5050505E-02  0.1380193E-11  0.0000000E+00  0.6304449E-08
  0.2762042E-02  0.0000000E+00 -0.5050505E-02  0.3168883E-12  0.0000000E+00  0.6306155E-08
 -0.5050505E-02  0.0000000E+00 -0.5050505E-02 -0.6608662E-12  0.0000000E+00  0.6305809E-08
 -0.5050505E-02  0.0000000E+00 -0.5050505E-02 -0.1630246E-11  0.0000000E+00  0.6303505E-08
 -0.5050505E-02  0.0000000E+00 -0.5050505E-02 -0.2730350E-11  0.0000000E+00  0.6299120E-08
 -0.5050505E-02  0.0000000E+00 -0.5050505E-02 -0.3812646E-11  0.0000000E+00  0.6292540E-08
 -0.5050505E-02  0.0000000E+00 -0.5050505E-02 -0.4860798E-11  0.0000000E+00  0.6283818E-08
 -0.5050505E-02  0.0000000E+00 -0.5050505E-02 -0.5878134E-11  0.0000000E+00  0.6273018E-08
 -0.5050505E-02  0.0000000E+00 -0.5050505E-02 -0.6866872E-11  0.0000000E+00  0.6260201E-08
 -0.5050504E-02  0.0000000E+00 -0.5050505E-02 -0.7826227E-11  0.0000000E+00  0.6245424E-08
 -0.5050501E-02  0.0000000E+00 -0.5050505E-02 -0.8753716E-11  0.0000000E+00  0.6228751E-08
 -0.5050495E-02  0.0000000E+00 -0.5050505E-02 -0.9646138E-11  0.0000000E+00  0.6210247E-08
 -0.5050482E-02  0.0000000E+00 -0.5050505E-02 -0.1050004E-10  0.0000000E+00  0.6189986E-08
 -0.5050449E-02  0.0000000E+00 -0.5050505E-02 -0.1131199E-10  0.0000000E+00  0.6168051E-08
 -0.5050376E-02  0.0000000E+00 -0.5050505E-02 -0.1207871E-10  0.0000000E+00  0.6144528E-08
 -0.5050299E-02  0.0000000E+00 -0.5050505E-02 -0.1279706E-10  0.0000000E+00  0.6119511E-08
 -0.5050178E-02  0.0000000E+00 -0.5050505E-02 -0.1346412E-10  0.0000000E+00  0.6093101E-08
 -0.5050018E-02  0.0000000E+00 -0.5050505E-02 -0.1407719E-10  0.0000000E+00  0.6065404E-08
 -0.5049710E-02  0.0000000E+00 -0.5050505E-02 -0.1463384E-10  0.0000000E+00  0.6036530E-08
 -0.5049253E-02  0.0000000E+00 -0.5050505E-02 -0.1513180E-10  0.0000000E+00  0.6006596E-08
 -0.5048636E-02  0.0000000E+00 -0.5050505E-02 -0.1556910E-10  0.0000000E+00  0.5975722E-08
 -0.5047442E-02  0.0000000E+00 -0.5050505E-02 -0.1594403E-10  0.0000000E+00  0.5944030E-08
 -0.5045727E-02  0.0000000E+00 -0.5050505E-02 -0.1625511E-10  0.0000000E+00  0.5911649E-08
 -0.5043261E-02  0.0000000E+00 -0.5050505E-02 -0.1650111E-10  0.0000000E+00  0.5878707E-08
 -0.5038714E-02  0.0000000E+00 -0.5050505E-02 -0.1668107E-10  0.0000000E+00  0.5845337E-08
 -0.5032318E-02  0.0000000E+00 -0.5050505E-02 -0.1679425E-10  0.0000000E+00  0.5811672E-08
 -0.5022454E-02  0.0000000E+00 -0.5050505E-02 -0.1684020E-10  0.0000000E+00  0.5777847E-08
 -0.5012589E-02  0.0000000E+00 -0.5050505E-02 -0.1681864E-10  0.0000000E+00  0.5743998E-08
 -0.5002725E-02  0.0000000E+00 -0.5050505E-02 -0.1672958E-10  0.0000000E+00  0.5710260E-08
 -0.4992860E-02  0.0000000E+00 -0.5050505E-02 -0.1657312E-10  0.0000000E+00  0.5676768E-08
 -0.4976523E-02  0.0000000E+00 -0.5050505E-02 -0.1634964E-10  0.0000000E+00  0.5643659E-08
 -0.4956794E-02  0.0000000E+00 -0.5050505E-02 -0.1605957E-10  0.0000000E+00  0.5611067E-08
 -0.4937066E-02  0.0000000E+00 -0.5050505E-02 -0.1570346E-10  0.0000000E+00  0.5579124E-08
 -0.4906239E-02  0.0000000E+00 -0.5050505E-02 -0.1528181E-10  0.0000000E+00  0.5547963E-08
 -0.4866782E-02  0.0000000E+00 -0.5050505E-02 -0.1479507E-10  0.0000000E+00  0.5517716E-08
 -0.4827325E-02  0.0000000E+00 -0.5050505E-02 -0.1424337E-10  0.0000000E+00  0.5488513E-08
 -0.4769372E-02  0.0000000E+00 -0.5050505E-02 -0.1362629E-10  0.0000000E+00  0.5460486E-08
 -0.4690458E-02  0.0000000E+00 -0.5050505E-02 -0.1294257E-10  0.0000000E+00  0.5433766E-08
 -0.4611543E-02  0.0000000E+00 -0.5050505E-02 -0.1218926E-10  0.0000000E+00  0.5408492E-08
 -0.4503035E-02  0.0000000E+00 -0.5050505E-02 -0.1136079E-10  0.0000000E+00  0.5384809E-08
 -0.4345206E-02  0.0000000E+00 -0.5050505E-02 -0.1044695E-10  0.0000000E+00  0.5362878E-08
 -0.4187378E-02  0.0000000E+00 -0.5050505E-02 -0.9429563E-11  0.0000000E+00  0.5342889E-08
 -0.3985156E-02  0.0000000E+00 -0.5050505E-02 -0.8276060E-11  0.0000000E+00  0.5325083E-08
 -0.3669499E-02  0.0000000E+00 -0.5050505E-02 -0.6926893E-11  0.0000000E+00  0.5309794E-08
 -0.3353842E-02  0.0000000E+00 -0.5050505E-02 -0.5268748E-11  0.0000000E+00  0.5297529E-08
 -0.2978990E-02  0.0000000E+00 -0.5050505E-02 -0.3071531E-11  0.0000000E+00  0.5289142E-08
 -0.2347676E-02  0.0000000E+00 -0.5050505E-02  0.1751868E-12  0.0000000E+00  0.5286229E-08
 -0.1716362E-02  0.0000000E+00 -0.5050505E-02  0.5638353E-11  0.0000000E+00  0.5292075E-08
 -0.1025842E-02  0.0000000E+00 -0.5050505E-02  0.1670248E-10  0.0000000E+00  0.5314543E-08
  0.2367855E-03  0.0000000E+00 -0.5050505E-02  0.4336050E-10  0.0000000E+00  0.5374946E-08
  0.1499413E-02  0.0000000E+00 -0.5050505E-02  0.1183267E-09  0.0000000E+00  0.5537548E-08
  0.5287294E-02  0.0000000E+00 -0.5050505E-02  0.1954820E-08  0.0000000E+00  0.4424271E-08
 -0.5050505E-02  0.0000000E+00 -0.5050505E-02  0.1142069E-11  0.0000000E+00  0.5313401E-08
 -0.5050505E-02  0.0000000E+00 -0.5050505E-02  0.4024008E-11  0.0000000E+00  0.5315214E-08
 -0.5050505E-02  0.0000000E+00 -0.5050505E-02  0.7266906E-11  0.0000000E+00  0.5319066E-08
 -0.5050505E-02  0.0000000E+00 -0.5050505E-02  0.1039256E-10  0.0000000E+00  0.5325034E-08
 -0.5050505E-02  0.0000000E+00 -0.5050505E-02  0.1340802E-10  0.0000000E+00  0.5333059E-08
 -0.5050505E-02  0.0000000E+00 -0.5050505E-02  0.1633121E-10  0.0000000E+00  0.5343082E-08
 -0.5050504E-02  0.0000000E+00 -0.5050505E-02  0.1917050E-10  0.0000000E+00  0.5355047E-08
 -0.5050501E-02  0.0000000E+00 -0.5050505E-02  0.2192486E-10  0.0000000E+00  0.5368897E-08
 -0.5050495E-02  0.0000000E+00 -0.5050505E-02  0.2458833E-10  0.0000000E+00  0.5384573E-08
 -0.5050482E-02  0.0000000E+00 -0.5050505E-02  0.2715259E-10  0.0000000E+00  0.5402011E-08
 -0.5050449E-02  0.0000000E+00 -0.5050505E-02  0.2960815E-10  0.0000000E+00  0.5421141E-08
 -0.5050376E-02  0.0000000E+00 -0.5050505E-02  0.3194574E-10  0.0000000E+00  0.5441887E-08
 -0.5050299E-02  0.0000000E+00 -0.5050505E-02  0.3415604E-10  0.0000000E+00  0.5464165E-08
 -0.5050178E-02  0.0000000E+00 -0.5050505E-02  0.3623002E-10  0.0000000E+00  0.5487887E-08
 -0.5050018E-02  0.0000000E+00 -0.5050505E-02  0.3815930E-10  0.0000000E+00  0.5512959E-08
 -0.5049710E-02  0.0000000E+00 -0.5050505E-02  0.3993584E-10  0.0000000E+00  0.5539279E-08
 -0.5049253E-02  0.0000000E+00 -0.5050505E-02  0.4155218E-10  0.0000000E+00  0.5566744E-08
 -0.5048636E-02  0.0000000E+00 -0.5050505E-02  0.4300144E-10  0.0000000E+00  0.5595242E-08
 -0.5047442E-02  0.0000000E+00 -0.5050505E-02  0.4427736E-10  0.0000000E+00  0.5624658E-08
 -0.5045727E-02  0.0000000E+00 -0.5050505E-02  0.4537436E-10  0.0000000E+00  0.5654874E-08
 -0.5043261E-02  0.0000000E+00 -0.5050505E-02  0.4628745E-10  0.0000000E+00  0.5685769E-08
 -0.5038714E-02  0.0000000E+00 -0.5050505E-02  0.4701246E-10  0.0000000E+00  0.5717215E-08
 -0.5032318E-02  0.0000000E+00 -0.5050505E-02  0.4754583E-10  0.0000000E+00  0.5749086E-08
 -0.5022454E-02  0.0000000E+00 -0.5050505E-02  0.4788488E-10  0.0000000E+00  0.5781251E-08
 -0.5012589E-02  0.0000000E+00 -0.5050505E-02  0.4802756E-10  0.0000000E+00  0.5813579E-08
 -0.5002725E-02  0.0000000E+00 -0.5050505E-02  0.4797271E-10  0.0000000E+00  0.5845937E-08
 -0.4992860E-02  0.0000000E+00 -0.5050505E-02  0.4771993E-10  0.0000000E+00  0.5878191E-08
 -0.4976523E-02  0.0000000E+00 -0.5050505E-02  0.4726965E-10  0.0000000E+00  0.5910208E-08
 -0.4956794E-02  0.0000000E+00 -0.5050505E-02  0.4662310E-10  0.0000000E+00  0.5941857E-08
 -0.4937066E-02  0.0000000E+00 -0.5050505E-02  0.4578231E-10  0.0000000E+00  0.5973004E-08
 -0.4906239E-02  0.0000000E+00 -0.5050505E-02  0.4475017E-10  0.0000000E+00  0.6003520E-08
 -0.4866782E-02  0.0000000E+00 -0.5050505E-02  0.4353036E-10  0.0000000E+00  0.6033277E-08
 -0.4827325E-02  0.0000000E+00 -0.5050505E-02  0.4212737E-10  0.0000000E+00  0.6062151E-08
 -0.4769372E-02  0.0000000E+00 -0.5050505E-02  0.4054647E-10  0.0000000E+00  0.6090019E-08
 -0.4690458E-02  0.0000000E+00 -0.5050505E-02  0.3879371E-10  0.0000000E+00  0.6116763E-08
 -0.4611543E-02  0.0000000E+00 -0.5050505E-02  0.3687588E-10  0.0000000E+00  0.6142271E-08
 -0.4503035E-02  0.0000000E+00 -0.5050505E-02  0.3480047E-10  0.0000000E+00  0.6166432E-08
 -0.4345206E-02  0.0000000E+00 -0.5050505E-02  0.3257562E-10  0.0000000E+00  0.6189145E-08
 -0.4187378E-02  0.0000000E+00 -0.5050505E-02  0.3021005E-10  0.0000000E+00  0.6210310E-08
 -0.3985156E-02  0.0000000E+00 -0.5050505E-02  0.2771289E-10  0.0000000E+00  0.6229837E-08
 -0.3669499E-02  0.0000000E+00 -0.5050505E-02  0.2509351E-10  0.0000000E+00  0.6247639E-08
 -0.3353842E-02  0.0000000E+00 -0.5050505E-02  0.2236132E-10  0.0000000E+00  0.6263638E-08
 -0.2978990E-02  0.0000000E+00 -0.5050505E-02  0.1952530E-10  0.0000000E+00  0.6277761E-08
 -0.2347676E-02  0.0000000E+00 -0.5050505E-02  0.1659400E-10  0.0000000E+00  0.6289939E-08
 -0.1716362E-02  0.0000000E+00 -0.5050505E-02  0.1357563E-10  0.0000000E+00  0.6300112E-08
 -0.1025842E-02  0.0000000E+00 -0.5050505E-02  0.1047993E-10  0.0000000E+00  0.6308221E-08
  0.2367855E-03  0.0000000E+00 -0.5050505E-02  0.7322936E-11  0.0000000E+00  0.6314218E-08
  0.1499413E-02  0.0000000E+00 -0.5050505E-02  0.4136700E-11  0.0000000E+00  0.6318075E-08
  0.2762042E-02  0.0000000E+00 -0.5050505E-02  0.9796851E-12  0.0000000E+00  0.6319817E-08
 -0.5050505E-02  0.0000000E+00 -0.5050505E-02 -0.1974762E-11  0.0000000E+00  0.6319506E-08
 -0.5050505E-02  0.0000000E+00 -0.5050505E-02 -0.4912193E-11  0.0000000E+00  0.6317175E-08
 -0.5050505E-02  0.0000000E+00 -0.5050505E-02 -0.8194983E-11  0.0000000E+00  0.6312740E-08
 -0.5050505E-02  0.0000000E+00 -0.5050505E-02 -0.1143413E-10  0.0000000E+00  0.6306123E-08
 -0.5050505E-02  0.0000000E+00 -0.5050505E-02 -0.1457734E-10  0.0000000E+00  0.6297360E-08
 -0.5050505E-02  0.0000000E+00 -0.5050505E-02 -0.1762999E-10  0.0000000E+00  0.6286509E-08
 -0.5050505E-02  0.0000000E+00 -0.5050505E-02 -0.2059682E-10  0.0000000E+00  0.6273629E-08
 -0.5050504E-02  0.0000000E+00 -0.5050505E-02 -0.2347521E-10  0.0000000E+00  0.6258777E-08
 -0.5050501E-02  0.0000000E+00 -0.5050505E-02 -0.2625780E-10  0.0000000E+00  0.6242016E-08
 -0.5050495E-02  0.0000000E+00 -0.5050505E-02 -0.2893503E-10  0.0000000E+00  0.6223415E-08
 -0.5050482E-02  0.0000000E+00 -0.5050505E-02 -0.3149662E-10  0.0000000E+00  0.6203048E-08
 -0.5050449E-02  0.0000000E+00 -0.5050505E-02 -0.3393235E-10  0.0000000E+00  0.6180997E-08
 -0.5050376E-02  0.0000000E+00 -0.5050505E-02 -0.3623234E-10  0.0000000E+00  0.6157350E-08
 -0.5050299E-02  0.0000000E+00 -0.5050505E-02 -0.3838721E-10  0.0000000E+00  0.6132200E-08
 -0.5050178E-02  0.0000000E+00 -0.5050505E-02 -0.4038822E-10  0.0000000E+00  0.6105651E-08
 -0.5050018E-02  0.0000000E+00 -0.5050505E-02 -0.4222729E-10  0.0000000E+00  0.6077807E-08
 -0.5049710E-02  0.0000000E+00 -0.5050505E-02 -0.4389704E-10  0.0000000E+00  0.6048780E-08
 -0.5049253E-02  0.0000000E+00 -0.5050505E-02 -0.4539076E-10  0.0000000E+00  0.6018687E-08
 -0.5048636E-02  0.0000000E+00 -0.5050505E-02 -0.4670252E-10  0.0000000E+00  0.5987649E-08
 -0.5047442E-02  0.0000000E+00 -0.5050505E-02 -0.4782717E-10  0.0000000E+00  0.5955789E-08
 -0.5045727E-02  0.0000000E+00 -0.5050505E-02 -0.4876028E-10  0.0000000E+00  0.5923236E-08
 -0.5043261E-02  0.0000000E+00 -0.5050505E-02 -0.4949820E-10  0.0000000E+00  0.5890120E-08
 -0.5038714E-02  0.0000000E+00 -0.5050505E-02 -0.5003801E-10  0.0000000E+00  0.5856573E-08
 -0.5032318E-02  0.0000000E+00 -0.5050505E-02 -0.5037757E-10  0.0000000E+00  0.5822730E-08
 -0.5022454E-02  0.0000000E+00 -0.5050505E-02 -0.5051546E-10  0.0000000E+00  0.5788726E-08
 -0.5012589E-02  0.0000000E+00 -0.5050505E-02 -0.5045094E-10  0.0000000E+00  0.5754697E-08
 -0.5002725E-02  0.0000000E+00 -0.5050505E-02 -0.5018394E-10  0.0000000E+00  0.5720779E-08
 -0.4992860E-02  0.0000000E+00 -0.5050505E-02 -0.4971494E-10  0.0000000E+00  0.5687109E-08
 -0.4976523E-02  0.0000000E+00 -0.5050505E-02 -0.4904498E-10  0.0000000E+00  0.5653823E-08
 -0.4956794E-02  0.0000000E+00 -0.5050505E-02 -0.4817549E-10  0.0000000E+00  0.5621055E-08
 -0.4937066E-02  0.0000000E+00 -0.5050505E-02 -0.4710812E-10  0.0000000E+00  0.5588938E-08
 -0.4906239E-02  0.0000000E+00 -0.5050505E-02 -0.4584458E-10  0.0000000E+00  0.5557606E-08
 -0.4866782E-02  0.0000000E+00 -0.5050505E-02 -0.4438628E-10  0.0000000E+00  0.5527189E-08
 -0.4827325E-02  0.0000000E+00 -0.5050505E-02 -0.4273388E-10  0.0000000E+00  0.5497817E-08
 -0.4769372E-02  0.0000000E+00 -0.5050505E-02 -0.4088660E-10  0.0000000E+00  0.5469621E-08
 -0.4690458E-02  0.0000000E+00 -0.5050505E-02 -0.3884119E-10  0.0000000E+00  0.5442731E-08
 -0.4611543E-02  0.0000000E+00 -0.5050505E-02 -0.3658995E-10  0.0000000E+00  0.5417279E-08
 -0.4503035E-02  0.0000000E+00 -0.5050505E-02 -0.3411800E-10  0.0000000E+00  0.5393405E-08
 -0.4345206E-02  0.0000000E+00 -0.5050505E-02 -0.3139813E-10  0.0000000E+00  0.5371257E-08
 -0.4187378E-02  0.0000000E+00 -0.5050505E-02 -0.2838210E-10  0.0000000E+00  0.5351005E-08
 -0.3985156E-02  0.0000000E+00 -0.5050505E-02 -0.2498467E-10  0.0000000E+00  0.5332848E-08
 -0.3669499E-02  0.0000000E+00 -0.5050505E-02 -0.2105432E-10  0.0000000E+00  0.5317040E-08
 -0.3353842E-02  0.0000000E+00 -0.5050505E-02 -0.1631530E-10  0.0000000E+00  0.5303920E-08
 -0.2978990E-02  0.0000000E+00 -0.5050505E-02 -0.1024447E-10  0.0000000E+00  0.5293937E-08
 -0.2347676E-02  0.0000000E+00 -0.5050505E-02 -0.1781890E-11  0.0000000E+00  0.5287652E-08
 -0.1716362E-02  0.0000000E+00 -0.5050505E-02  0.1130662E-10  0.0000000E+00  0.5285571E-08
 -0.1025842E-02  0.0000000E+00 -0.5050505E-02  0.3465754E-10  0.0000000E+00  0.5286987E-08
  0.2367855E-03  0.0000000E+00 -0.5050505E-02  0.8192007E-10  0.0000000E+00  0.5283758E-08
  0.1499413E-02  0.0000000E+00 -0.5050505E-02  0.1885124E-09  0.0000000E+00  0.5231430E-08
  0.5287294E-02  0.0000000E+00 -0.5050505E-02  0.4513759E-09  0.0000000E+00  0.4915070E-08
 -0.5050505E-02  0.0000000E+00 -0.5050505E-02  0.2010485E-11  0.0000000E+00  0.5329829E-08
 -0.5050505E-02  0.0000000E+00 -0.5050505E-02  0.6814799E-11  0.0000000E+00  0.5331726E-08
 -0.5050505E-02  0.0000000E+00 -0.5050505E-02  0.1216524E-10  0.0000000E+00  0.5335670E-08
 -0.5050505E-02  0.0000000E+00 -0.5050505E-02  0.1734975E-10  0.0000000E+00  0.5341724E-08
 -0.5050505E-02  0.0000000E+00 -0.5050505E-02  0.2237033E-10  0.0000000E+00  0.5349843E-08
 -0.5050505E-02  0.0000000E+00 -0.5050505E-02  0.2724432E-10  0.0000000E+00  0.5359975E-08
 -0.5050504E-02  0.0000000E+00 -0.5050505E-02  0.3198031E-10  0.0000000E+00  0.5372067E-08
 -0.5050501E-02  0.0000000E+00 -0.5050505E-02  0.3657509E-10  0.0000000E+00  0.5386064E-08
 -0.5050495E-02  0.0000000E+00 -0.5050505E-02  0.4101815E-10  0.0000000E+00  0.5401906E-08
 -0.5050482E-02  0.0000000E+00 -0.5050505E-02  0.4529579E-10  0.0000000E+00  0.5419528E-08
 -0.5050449E-02  0.0000000E+00 -0.5050505E-02  0.4939218E-10  0.0000000E+00  0.5438860E-08
 -0.5050376E-02  0.0000000E+00 -0.5050505E-02  0.5329178E-10  0.0000000E+00  0.5459824E-08
 -0.5050299E-02  0.0000000E+00 -0.5050505E-02  0.5697917E-10  0.0000000E+00  0.5482337E-08
 -0.5050178E-02  0.0000000E+00 -0.5050505E-02  0.6043921E-10  0.0000000E+00  0.5506310E-08
 -0.5050018E-02  0.0000000E+00 -0.5050505E-02  0.6365794E-10  0.0000000E+00  0.5531647E-08
 -0.5049710E-02  0.0000000E+00 -0.5050505E-02  0.6662196E-10  0.0000000E+00  0.5558246E-08
 -0.5049253E-02  0.0000000E+00 -0.5050505E-02  0.6931877E-10  0.0000000E+00  0.5586002E-08
 -0.5048636E-02  0.0000000E+00 -0.5050505E-02  0.7173693E-10  0.0000000E+00  0.5614802E-08
 -0.5047442E-02  0.0000000E+00 -0.5050505E-02  0.7386600E-10  0.0000000E+00  0.5644532E-08
 -0.5045727E-02  0.0000000E+00 -0.5050505E-02  0.7569658E-10  0.0000000E+00  0.5675070E-08
 -0.5043261E-02  0.0000000E+00 -0.5050505E-02  0.7722046E-10  0.0000000E+00  0.5706294E-08
 -0.5038714E-02  0.0000000E+00 -0.5050505E-02  0.7843055E-10  0.0000000E+00  0.5738077E-08
 -0.5032318E-02  0.0000000E+00 -0.5050505E-02  0.7932103E-10  0.0000000E+00  0.5770290E-08
 -0.5022454E-02  0.0000000E+00 -0.5050505E-02  0.7988730E-10  0.0000000E+00  0.5802801E-08
 -0.5012589E-02  0.0000000E+00 -0.5050505E-02  0.8012600E-10  0.0000000E+00  0.5835477E-08
 -0.5002725E-02  0.0000000E+00 -0.5050505E-02  0.8003519E-10  0.0000000E+00  0.5868185E-08
 -0.4992860E-02  0.0000000E+00 -0.5050505E-02  0.7961416E-10  0.0000000E+00  0.5900788E-08
 -0.4976523E-02  0.0000000E+00 -0.5050505E-02  0.7886364E-10  0.0000000E+00  0.5933153E-08
 -0.4956794E-02  0.0000000E+00 -0.5050505E-02  0.7778565E-10  0.0000000E+00  0.5965146E-08
 -0.4937066E-02  0.0000000E+00 -0.5050505E-02  0.7638359E-10  0.0000000E+00  0.5996633E-08
 -0.4906239E-02  0.0000000E+00 -0.5050505E-02  0.7466227E-10  0.0000000E+00  0.6027483E-08
 -0.4866782E-02  0.0000000E+00 -0.5050505E-02  0.7262781E-10  0.0000000E+00  0.6057566E-08
 -0.4827325E-02  0.0000000E+00 -0.5050505E-02  0.7028771E-10  0.0000000E+00  0.6086757E-08
 -0.4769372E-02  0.0000000E+00 -0.5050505E-02  0.6765072E-10  0.0000000E+00  0.6114932E-08
 -0.4690458E-02  0.0000000E+00 -0.5050505E-02  0.6472701E-10  0.0000000E+00  0.6141972E-08
 -0.4611543E-02  0.0000000E+00 -0.5050505E-02  0.6152782E-10  0.0000000E+00  0.6167763E-08
 -0.4503035E-02  0.0000000E+00 -0.5050505E-02  0.5806574E-10  0.0000000E+00  0.6192193E-08
 -0.4345206E-02  0.0000000E+00 -0.5050505E-02  0.5435431E-10  0.0000000E+00  0.6215159E-08
 -0.4187378E-02  0.0000000E+00 -0.5050505E-02  0.5040813E-10  0.0000000E+00  0.6236562E-08
 -0.3985156E-02  0.0000000E+00 -0.5050505E-02  0.4624246E-10  0.0000000E+00  0.6256308E-08
 -0.3669499E-02  0.0000000E+00 -0.5050505E-02  0.4187306E-10  0.0000000E+00  0.6274313E-08
 -0.3353842E-02  0.0000000E+00 -0.5050505E-02  0.3731552E-10  0.0000000E+00  0.6290494E-08
 -0.2978990E-02  0.0000000E+00 -0.5050505E-02  0.3258487E-10  0.0000000E+00  0.6304780E-08
 -0.2347676E-02  0.0000000E+00 -0.5050505E-02  0.2769473E-10  0.0000000E+00  0.6317102E-08
 -0.1716362E-02  0.0000000E+00 -0.5050505E-02  0.2265769E-10  0.0000000E+00  0.6327397E-08
 -0.1025842E-02  0.0000000E+00 -0.5050505E-02  0.1748797E-10  0.0000000E+00  0.6335604E-08
  0.2367855E-03  0.0000000E+00 -0.5050505E-02  0.1221176E-10  0.0000000E+00  0.6341671E-08
  0.1499413E-02  0.0000000E+00 -0.5050505E-02  0.6892936E-11  0.0000000E+00  0.6345567E-08
  0.2762042E-02  0.0000000E+00 -0.5050505E-02  0.1684868E-11  0.0000000E+00  0.6347335E-08
 -0.5050505E-02  0.0000000E+00 -0.5050505E-02 -0.3275135E-11  0.0000000E+00  0.6347042E-08
 -0.5050505E-02  0.0000000E+00 -0.5050505E-02 -0.8229848E-11  0.0000000E+00  0.6344690E-08
 -0.5050505E-02  0.0000000E+00 -0.5050505E-02 -0.1367868E-10  0.0000000E+00  0.6340200E-08
 -0.5050505E-02  0.0000000E+00 -0.5050505E-02 -0.1906853E-10  0.0000000E+00  0.6333514E-08
 -0.5050505E-02  0.0000000E+00 -0.5050505E-02 -0.2430991E-10  0.0000000E+00  0.6324665E-08
 -0.5050505E-02  0.0000000E+00 -0.5050505E-02 -0.2940404E-10  0.0000000E+00  0.6313706E-08
 -0.5050505E-02  0.0000000E+00 -0.5050505E-02 -0.3435533E-10  0.0000000E+00  0.6300694E-08
 -0.5050504E-02  0.0000000E+00 -0.5050505E-02 -0.3915859E-10  0.0000000E+00  0.6285689E-08
 -0.5050501E-02  0.0000000E+00 -0.5050505E-02 -0.4380155E-10  0.0000000E+00  0.6268755E-08
 -0.5050495E-02  0.0000000E+00 -0.5050505E-02 -0.4826840E-10  0.0000000E+00  0.6249959E-08
 -0.5050482E-02  0.0000000E+00 -0.5050505E-02 -0.5254214E-10  0.0000000E+00  0.6229378E-08
 -0.5050449E-02  0.0000000E+00 -0.5050505E-02 -0.5660582E-10  0.0000000E+00  0.6207094E-08
 -0.5050376E-02  0.0000000E+00 -0.5050505E-02 -0.6044292E-10  0.0000000E+00  0.6183197E-08
 -0.5050299E-02  0.0000000E+00 -0.5050505E-02 -0.6403787E-10  0.0000000E+00  0.6157782E-08
 -0.5050178E-02  0.0000000E+00 -0.5050505E-02 -0.6737608E-10  0.0000000E+00  0.6130952E-08
 -0.5050018E-02  0.0000000E+00 -0.5050505E-02 -0.7044409E-10  0.0000000E+00  0.6102813E-08
 -0.5049710E-02  0.0000000E+00 -0.5050505E-02 -0.7322956E-10  0.0000000E+00  0.6073480E-08
 -0.5049253E-02  0.0000000E+00 -0.5050505E-02 -0.7572137E-10  0.0000000E+00  0.6043069E-08
 -0.5048636E-02  0.0000000E+00 -0.5050505E-02 -0.7790960E-10  0.0000000E+00  0.6011702E-08
 -0.5047442E-02  0.0000000E+00 -0.5050505E-02 -0.7978568E-10  0.0000000E+00  0.5979506E-08
 -0.5045727E-02  0.0000000E+00 -0.5050505E-02 -0.8134222E-10  0.0000000E+00  0.5946609E-08
 -0.5043261E-02  0.0000000E+00 -0.5050505E-02 -0.8257317E-10  0.0000000E+00  0.5913143E-08
 -0.5038714E-02  0.0000000E+00 -0.5050505E-02 -0.8347370E-10  0.0000000E+00  0.5879242E-08
 -0.5032318E-02  0.0000000E+00 -0.5050505E-02 -0.8404026E-10  0.0000000E+00  0.5845042E-08
 -0.5022454E-02  0.0000000E+00 -0.5050505E-02 -0.8427049E-10  0.0000000E+00  0.5810678E-08
 -0.5012589E-02  0.0000000E+00 -0.5050505E-02 -0.8416324E-10  0.0000000E+00  0.5776289E-08
 -0.5002725E-02  0.0000000E+00 -0.5050505E-02 -0.8371844E-10  0.0000000E+00  0.5742012E-08
 -0.4992860E-02  0.0000000E+00 -0.5050505E-02 -0.8293699E-10  0.0000000E+00  0.5707985E-08
 -0.4976523E-02  0.0000000E+00 -0.5050505E-02 -0.8182075E-10  0.0000000E+00  0.5674344E-08
 -0.4956794E-02  0.0000000E+00 -0.5050505E-02 -0.8037225E-10  0.0000000E+00  0.5641224E-08
 -0.4937066E-02  0.0000000E+00 -0.5050505E-02 -0.7859447E-10  0.0000000E+00  0.5608760E-08
 -0.4906239E-02  0.0000000E+00 -0.5050505E-02 -0.7649061E-10  0.0000000E+00  0.5577085E-08
 -0.4866782E-02  0.0000000E+00 -0.5050505E-02 -0.7406351E-10  0.0000000E+00  0.5546329E-08
 -0.4827325E-02  0.0000000E+00 -0.5050505E-02 -0.7131505E-10  0.0000000E+00  0.5516621E-08
 -0.4769372E-02  0.0000000E+00 -0.5050505E-02 -0.6824517E-10  0.0000000E+00  0.5488090E-08
 -0.4690458E-02  0.0000000E+00 -0.5050505E-02 -0.6485030E-10  0.0000000E+00  0.5460862E-08
 -0.4611543E-02  0.0000000E+00 -0.5050505E-02 -0.6112095E-10  0.0000000E+00  0.5435062E-08
 -0.4503035E-02  0.0000000E+00 -0.5050505E-02 -0.5703776E-10  0.0000000E+00  0.5410819E-08
 -0.4345206E-02  0.0000000E+00 -0.5050505E-02 -0.5256524E-10  0.0000000E+00  0.5388261E-08
 -0.4187378E-02  0.0000000E+00 -0.5050505E-02 -0.4764070E-10  0.0000000E+00  0.5367522E-08
 -0.3985156E-02  0.0000000E+00 -0.5050505E-02 -0.4215615E-10  0.0000000E+00  0.5348743E-08
 -0.3669499E-02  0.0000000E+00 -0.5050505E-02 -0.3592791E-10  0.0000000E+00  0.5332064E-08
 -0.3353842E-02  0.0000000E+00 -0.5050505E-02 -0.2864699E-10  0.0000000E+00  0.5317615E-08
 -0.2978990E-02  0.0000000E+00 -0.5050505E-02 -0.1979947E-10  0.0000000E+00  0.5305437E-08
 -0.2347676E-02  0.0000000E+00 -0.5050505E-02 -0.8534076E-11  0.0000000E+00  0.5295255E-08
 -0.1716362E-02  0.0000000E+00 -0.5050505E-02  0.6749601E-11  0.0000000E+00  0.5286017E-08
 -0.1025842E-02  0.0000000E+00 -0.5050505E-02  0.2902367E-10  0.0000000E+00  0.5274612E-08
  0.2367855E-03  0.0000000E+00 -0.5050505E-02  0.6157763E-10  0.0000000E+00  0.5252377E-08
  0.1499413E-02  0.0000000E+00 -0.5050505E-02  0.1033571E-09  0.0000000E+00  0.5200138E-08
  0.5287294E-02  0.0000000E+00 -0.5050505E-02  0.1174608E-09  0.0000000E+00  0.5098675E-08
 -0.5050505E-02  0.0000000E+00 -0.5050505E-02  0.2924042E-11  0.0000000E+00  0.5354790E-08
 -0.5050505E-02  0.0000000E+00 -0.5050505E-02  0.9677507E-11  0.0000000E+00  0.5356741E-08
 -0.5050505E-02  0.0000000E+00 -0.5050505E-02  0.1712778E-10  0.0000000E+00  0.5360773E-08
 -0.5050505E-02  0.0000000E+00 -0.5050505E-02  0.2437270E-10  0.0000000E+00  0.5366939E-08
 -0.5050505E-02  0.0000000E+00 -0.5050505E-02  0.3140680E-10  0.0000000E+00  0.5375193E-08
 -0.5050505E-02  0.0000000E+00 -0.5050505E-02  0.3824357E-10  0.0000000E+00  0.5385489E-08
 -0.5050504E-02  0.0000000E+00 -0.5050505E-02  0.4488944E-10  0.0000000E+00  0.5397774E-08
 -0.5050501E-02  0.0000000E+00 -0.5050505E-02  0.5133809E-10  0.0000000E+00  0.5411991E-08
 -0.5050495E-02  0.0000000E+00 -0.5050505E-02  0.5757410E-10  0.0000000E+00  0.5428082E-08
 -0.5050482E-02  0.0000000E+00 -0.5050505E-02  0.6357805E-10  0.0000000E+00  0.5445981E-08
 -0.5050449E-02  0.0000000E+00 -0.5050505E-02  0.6932782E-10  0.0000000E+00  0.5465616E-08
 -0.5050376E-02  0.0000000E+00 -0.5050505E-02  0.7480157E-10  0.0000000E+00  0.5486909E-08
 -0.5050299E-02  0.0000000E+00 -0.5050505E-02  0.7997755E-10  0.0000000E+00  0.5509776E-08
 -0.5050178E-02  0.0000000E+00 -0.5050505E-02  0.8483470E-10  0.0000000E+00  0.5534125E-08
 -0.5050018E-02  0.0000000E+00 -0.5050505E-02  0.8935325E-10  0.0000000E+00  0.5559861E-08
 -0.5049710E-02  0.0000000E+00 -0.5050505E-02  0.9351442E-10  0.0000000E+00  0.5586880E-08
 -0.5049253E-02  0.0000000E+00 -0.5050505E-02  0.9730067E-10  0.0000000E+00  0.5615073E-08
 -0.5048636E-02  0.0000000E+00 -0.5050505E-02  0.1006959E-09  0.0000000E+00  0.5644329E-08
 -0.5047442E-02  0.0000000E+00 -0.5050505E-02  0.1036855E-09  0.0000000E+00  0.5674530E-08
 -0.5045727E-02  0.0000000E+00 -0.5050505E-02  0.1062562E-09  0.0000000E+00  0.5705553E-08
 -0.5043261E-02  0.0000000E+00 -0.5050505E-02  0.1083965E-09  0.0000000E+00  0.5737274E-08
 -0.5038714E-02  0.0000000E+00 -0.5050505E-02  0.1100964E-09  0.0000000E+00  0.5769564E-08
 -0.5032318E-02  0.0000000E+00 -0.5050505E-02  0.1113478E-09  0.0000000E+00  0.5802291E-08
 -0.5022454E-02  0.0000000E+00 -0.5050505E-02  0.1121440E-09  0.0000000E+00  0.5835323E-08
 -0.5012589E-02  0.0000000E+00 -0.5050505E-02  0.1124805E-09  0.0000000E+00  0.5868523E-08
 -0.5002725E-02  0.0000000E+00 -0.5050505E-02  0.1123545E-09  0.0000000E+00  0.5901757E-08
 -0.4992860E-02  0.0000000E+00 -0.5050505E-02  0.1117649E-09  0.0000000E+00  0.5934886E-08
 -0.4976523E-02  0.0000000E+00 -0.5050505E-02  0.1107128E-09  0.0000000E+00  0.5967774E-08
 -0.4956794E-02  0.0000000E+00 -0.5050505E-02  0.1092009E-09  0.0000000E+00  0.6000285E-08
 -0.4937066E-02  0.0000000E+00 -0.5050505E-02  0.1072341E-09  0.0000000E+00  0.6032283E-08