title = "dataset feddes"
variables = "x", "y", "z", "vx", "vy", "vz"
zone t = "velocities, solution time =  3.500E+01 days        " i =   99, j =   99, k =    1,  f=point
 -0.5050505E-02  0.0000000E+00 -0.5050505E-02  0.2133243E-11  0.0000000E+00  0.3353519E-07
 -0.5050505E-02  0.0000000E+00 -0.5050505E-02  0.7081079E-11  0.0000000E+00  0.3354445E-07
 -0.5050505E-02  0.0000000E+00 -0.5050505E-02  0.1208464E-10  0.0000000E+00  0.3356373E-07
 -0.5050505E-02  0.0000000E+00 -0.5050505E-02  0.1693685E-10  0.0000000E+00  0.3359291E-07
 -0.5050505E-02  0.0000000E+00 -0.5050505E-02  0.2168845E-10  0.0000000E+00  0.3363176E-07
 -0.5050505E-02  0.0000000E+00 -0.5050505E-02  0.2634023E-10  0.0000000E+00  0.3368006E-07
 -0.5050504E-02  0.0000000E+00 -0.5050505E-02  0.3088254E-10  0.0000000E+00  0.3373760E-07
 -0.5050501E-02  0.0000000E+00 -0.5050505E-02  0.3530138E-10  0.0000000E+00  0.3380416E-07
 -0.5050495E-02  0.0000000E+00 -0.5050505E-02  0.3958124E-10  0.0000000E+00  0.3387947E-07
 -0.5050482E-02  0.0000000E+00 -0.5050505E-02  0.4370598E-10  0.0000000E+00  0.3396323E-07
 -0.5050449E-02  0.0000000E+00 -0.5050505E-02  0.4765962E-10  0.0000000E+00  0.3405511E-07
 -0.5050376E-02  0.0000000E+00 -0.5050505E-02  0.5142651E-10  0.0000000E+00  0.3415476E-07
 -0.5050299E-02  0.0000000E+00 -0.5050505E-02  0.5499154E-10  0.0000000E+00  0.3426178E-07
 -0.5050178E-02  0.0000000E+00 -0.5050505E-02  0.5834021E-10  0.0000000E+00  0.3437575E-07
 -0.5050018E-02  0.0000000E+00 -0.5050505E-02  0.6145879E-10  0.0000000E+00  0.3449623E-07
 -0.5049710E-02  0.0000000E+00 -0.5050505E-02  0.6433425E-10  0.0000000E+00  0.3462273E-07
 -0.5049253E-02  0.0000000E+00 -0.5050505E-02  0.6695445E-10  0.0000000E+00  0.3475477E-07
 -0.5048636E-02  0.0000000E+00 -0.5050505E-02  0.6930813E-10  0.0000000E+00  0.3489180E-07
 -0.5047442E-02  0.0000000E+00 -0.5050505E-02  0.7138500E-10  0.0000000E+00  0.3503329E-07
 -0.5045727E-02  0.0000000E+00 -0.5050505E-02  0.7317575E-10  0.0000000E+00  0.3517867E-07
 -0.5043261E-02  0.0000000E+00 -0.5050505E-02  0.7467216E-10  0.0000000E+00  0.3532735E-07
 -0.5038714E-02  0.0000000E+00 -0.5050505E-02  0.7586709E-10  0.0000000E+00  0.3547875E-07
 -0.5032318E-02  0.0000000E+00 -0.5050505E-02  0.7675454E-10  0.0000000E+00  0.3563223E-07
 -0.5022454E-02  0.0000000E+00 -0.5050505E-02  0.7732974E-10  0.0000000E+00  0.3578719E-07
 -0.5012589E-02  0.0000000E+00 -0.5050505E-02  0.7758909E-10  0.0000000E+00  0.3594299E-07
 -0.5002725E-02  0.0000000E+00 -0.5050505E-02  0.7753030E-10  0.0000000E+00  0.3609898E-07
 -0.4992860E-02  0.0000000E+00 -0.5050505E-02  0.7715232E-10  0.0000000E+00  0.3625454E-07
 -0.4976523E-02  0.0000000E+00 -0.5050505E-02  0.7645544E-10  0.0000000E+00  0.3640902E-07
 -0.4956794E-02  0.0000000E+00 -0.5050505E-02  0.7544126E-10  0.0000000E+00  0.3656178E-07
 -0.4937066E-02  0.0000000E+00 -0.5050505E-02  0.7411272E-10  0.0000000E+00  0.3671218E-07
 -0.4906239E-02  0.0000000E+00 -0.5050505E-02  0.7247409E-10  0.0000000E+00  0.3685959E-07
 -0.4866782E-02  0.0000000E+00 -0.5050505E-02  0.7053102E-10  0.0000000E+00  0.3700341E-07
 -0.4827325E-02  0.0000000E+00 -0.5050505E-02  0.6829043E-10  0.0000000E+00  0.3714302E-07
 -0.4769372E-02  0.0000000E+00 -0.5050505E-02  0.6576063E-10  0.0000000E+00  0.3727783E-07
 -0.4690458E-02  0.0000000E+00 -0.5050505E-02  0.6295114E-10  0.0000000E+00  0.3740727E-07
 -0.4611543E-02  0.0000000E+00 -0.5050505E-02  0.5987282E-10  0.0000000E+00  0.3753079E-07
 -0.4503035E-02  0.0000000E+00 -0.5050505E-02  0.5653771E-10  0.0000000E+00  0.3764786E-07
 -0.4345206E-02  0.0000000E+00 -0.5050505E-02  0.5295903E-10  0.0000000E+00  0.3775797E-07
 -0.4187378E-02  0.0000000E+00 -0.5050505E-02  0.4915109E-10  0.0000000E+00  0.3786066E-07
 -0.3985156E-02  0.0000000E+00 -0.5050505E-02  0.4512926E-10  0.0000000E+00  0.3795547E-07
 -0.3669499E-02  0.0000000E+00 -0.5050505E-02  0.4090977E-10  0.0000000E+00  0.3804200E-07
 -0.3353842E-02  0.0000000E+00 -0.5050505E-02  0.3650962E-10  0.0000000E+00  0.3811986E-07
 -0.2978990E-02  0.0000000E+00 -0.5050505E-02  0.3194640E-10  0.0000000E+00  0.3818870E-07
 -0.2347676E-02  0.0000000E+00 -0.5050505E-02  0.2723809E-10  0.0000000E+00  0.3824822E-07
 -0.1716362E-02  0.0000000E+00 -0.5050505E-02  0.2240282E-10  0.0000000E+00  0.3829814E-07
 -0.1025842E-02  0.0000000E+00 -0.5050505E-02  0.1745896E-10  0.0000000E+00  0.3833823E-07
  0.2367855E-03  0.0000000E+00 -0.5050505E-02  0.1242538E-10  0.0000000E+00  0.3836828E-07
  0.1499413E-02  0.0000000E+00 -0.5050505E-02  0.7322328E-11  0.0000000E+00  0.3838814E-07
  0.2762042E-02  0.0000000E+00 -0.5050505E-02  0.2171797E-11  0.0000000E+00  0.3839769E-07
 -0.5050505E-02  0.0000000E+00 -0.5050505E-02 -0.2986217E-11  0.0000000E+00  0.3839687E-07
 -0.5050505E-02  0.0000000E+00 -0.5050505E-02 -0.8127227E-11  0.0000000E+00  0.3838570E-07
 -0.5050505E-02  0.0000000E+00 -0.5050505E-02 -0.1328107E-10  0.0000000E+00  0.3836417E-07
 -0.5050505E-02  0.0000000E+00 -0.5050505E-02 -0.1836254E-10  0.0000000E+00  0.3833234E-07
 -0.5050505E-02  0.0000000E+00 -0.5050505E-02 -0.2335395E-10  0.0000000E+00  0.3829039E-07
 -0.5050505E-02  0.0000000E+00 -0.5050505E-02 -0.2824352E-10  0.0000000E+00  0.3823850E-07
 -0.5050505E-02  0.0000000E+00 -0.5050505E-02 -0.3301635E-10  0.0000000E+00  0.3817690E-07
 -0.5050504E-02  0.0000000E+00 -0.5050505E-02 -0.3765508E-10  0.0000000E+00  0.3810582E-07
 -0.5050501E-02  0.0000000E+00 -0.5050505E-02 -0.4214137E-10  0.0000000E+00  0.3802558E-07
 -0.5050495E-02  0.0000000E+00 -0.5050505E-02 -0.4645692E-10  0.0000000E+00  0.3793648E-07
 -0.5050482E-02  0.0000000E+00 -0.5050505E-02 -0.5058390E-10  0.0000000E+00  0.3783889E-07
 -0.5050449E-02  0.0000000E+00 -0.5050505E-02 -0.5450527E-10  0.0000000E+00  0.3773320E-07
 -0.5050376E-02  0.0000000E+00 -0.5050505E-02 -0.5820487E-10  0.0000000E+00  0.3761985E-07
 -0.5050299E-02  0.0000000E+00 -0.5050505E-02 -0.6166756E-10  0.0000000E+00  0.3749930E-07
 -0.5050178E-02  0.0000000E+00 -0.5050505E-02 -0.6487928E-10  0.0000000E+00  0.3737204E-07
 -0.5050018E-02  0.0000000E+00 -0.5050505E-02 -0.6782705E-10  0.0000000E+00  0.3723858E-07
 -0.5049710E-02  0.0000000E+00 -0.5050505E-02 -0.7049911E-10  0.0000000E+00  0.3709947E-07
 -0.5049253E-02  0.0000000E+00 -0.5050505E-02 -0.7288485E-10  0.0000000E+00  0.3695528E-07
 -0.5048636E-02  0.0000000E+00 -0.5050505E-02 -0.7497492E-10  0.0000000E+00  0.3680658E-07
 -0.5047442E-02  0.0000000E+00 -0.5050505E-02 -0.7676120E-10  0.0000000E+00  0.3665398E-07
 -0.5045727E-02  0.0000000E+00 -0.5050505E-02 -0.7823679E-10  0.0000000E+00  0.3649811E-07
 -0.5043261E-02  0.0000000E+00 -0.5050505E-02 -0.7939604E-10  0.0000000E+00  0.3633958E-07
 -0.5038714E-02  0.0000000E+00 -0.5050505E-02 -0.8023450E-10  0.0000000E+00  0.3617905E-07
 -0.5032318E-02  0.0000000E+00 -0.5050505E-02 -0.8074892E-10  0.0000000E+00  0.3601715E-07
 -0.5022454E-02  0.0000000E+00 -0.5050505E-02 -0.8093716E-10  0.0000000E+00  0.3585455E-07
 -0.5012589E-02  0.0000000E+00 -0.5050505E-02 -0.8079813E-10  0.0000000E+00  0.3569190E-07
 -0.5002725E-02  0.0000000E+00 -0.5050505E-02 -0.8033172E-10  0.0000000E+00  0.3552986E-07
 -0.4992860E-02  0.0000000E+00 -0.5050505E-02 -0.7953863E-10  0.0000000E+00  0.3536908E-07
 -0.4976523E-02  0.0000000E+00 -0.5050505E-02 -0.7842021E-10  0.0000000E+00  0.3521023E-07
 -0.4956794E-02  0.0000000E+00 -0.5050505E-02 -0.7697823E-10  0.0000000E+00  0.3505395E-07
 -0.4937066E-02  0.0000000E+00 -0.5050505E-02 -0.7521452E-10  0.0000000E+00  0.3490090E-07
 -0.4906239E-02  0.0000000E+00 -0.5050505E-02 -0.7313050E-10  0.0000000E+00  0.3475171E-07
 -0.4866782E-02  0.0000000E+00 -0.5050505E-02 -0.7072651E-10  0.0000000E+00  0.3460704E-07
 -0.4827325E-02  0.0000000E+00 -0.5050505E-02 -0.6800074E-10  0.0000000E+00  0.3446753E-07
 -0.4769372E-02  0.0000000E+00 -0.5050505E-02 -0.6494773E-10  0.0000000E+00  0.3433383E-07
 -0.4690458E-02  0.0000000E+00 -0.5050505E-02 -0.6155585E-10  0.0000000E+00  0.3420661E-07
 -0.4611543E-02  0.0000000E+00 -0.5050505E-02 -0.5780335E-10  0.0000000E+00  0.3408657E-07
 -0.4503035E-02  0.0000000E+00 -0.5050505E-02 -0.5365162E-10  0.0000000E+00  0.3397448E-07
 -0.4345206E-02  0.0000000E+00 -0.5050505E-02 -0.4903356E-10  0.0000000E+00  0.3387122E-07
 -0.4187378E-02  0.0000000E+00 -0.5050505E-02 -0.4383229E-10  0.0000000E+00  0.3377783E-07
 -0.3985156E-02  0.0000000E+00 -0.5050505E-02 -0.3784079E-10  0.0000000E+00  0.3369569E-07
 -0.3669499E-02  0.0000000E+00 -0.5050505E-02 -0.3068042E-10  0.0000000E+00  0.3362678E-07
 -0.3353842E-02  0.0000000E+00 -0.5050505E-02 -0.2162531E-10  0.0000000E+00  0.3357418E-07
 -0.2978990E-02  0.0000000E+00 -0.5050505E-02 -0.9193726E-11  0.0000000E+00  0.3354319E-07
 -0.2347676E-02  0.0000000E+00 -0.5050505E-02  0.9870067E-11  0.0000000E+00  0.3354387E-07
 -0.1716362E-02  0.0000000E+00 -0.5050505E-02  0.4346549E-10  0.0000000E+00  0.3359750E-07
 -0.1025842E-02  0.0000000E+00 -0.5050505E-02  0.1127543E-09  0.0000000E+00  0.3375461E-07
  0.2367855E-03  0.0000000E+00 -0.5050505E-02  0.2807998E-09  0.0000000E+00  0.3415039E-07
  0.1499413E-02  0.0000000E+00 -0.5050505E-02  0.7558977E-09  0.0000000E+00  0.3519296E-07
  0.5287294E-02  0.0000000E+00 -0.5050505E-02  0.1243024E-07  0.0000000E+00  0.2812091E-07
 -0.5050505E-02  0.0000000E+00 -0.5050505E-02  0.6577265E-11  0.0000000E+00  0.3357058E-07
 -0.5050505E-02  0.0000000E+00 -0.5050505E-02  0.2132660E-10  0.0000000E+00  0.3358016E-07
 -0.5050505E-02  0.0000000E+00 -0.5050505E-02  0.3628264E-10  0.0000000E+00  0.3359965E-07
 -0.5050505E-02  0.0000000E+00 -0.5050505E-02  0.5081966E-10  0.0000000E+00  0.3362904E-07
 -0.5050505E-02  0.0000000E+00 -0.5050505E-02  0.6506769E-10  0.0000000E+00  0.3366811E-07
 -0.5050505E-02  0.0000000E+00 -0.5050505E-02  0.7902078E-10  0.0000000E+00  0.3371669E-07
 -0.5050504E-02  0.0000000E+00 -0.5050505E-02  0.9264677E-10  0.0000000E+00  0.3377456E-07
 -0.5050501E-02  0.0000000E+00 -0.5050505E-02  0.1059029E-09  0.0000000E+00  0.3384149E-07
 -0.5050495E-02  0.0000000E+00 -0.5050505E-02  0.1187423E-09  0.0000000E+00  0.3391721E-07
 -0.5050482E-02  0.0000000E+00 -0.5050505E-02  0.1311166E-09  0.0000000E+00  0.3400144E-07
 -0.5050449E-02  0.0000000E+00 -0.5050505E-02  0.1429777E-09  0.0000000E+00  0.3409383E-07
 -0.5050376E-02  0.0000000E+00 -0.5050505E-02  0.1542787E-09  0.0000000E+00  0.3419404E-07
 -0.5050299E-02  0.0000000E+00 -0.5050505E-02  0.1649743E-09  0.0000000E+00  0.3430166E-07
 -0.5050178E-02  0.0000000E+00 -0.5050505E-02  0.1750210E-09  0.0000000E+00  0.3441627E-07
 -0.5050018E-02  0.0000000E+00 -0.5050505E-02  0.1843775E-09  0.0000000E+00  0.3453743E-07
 -0.5049710E-02  0.0000000E+00 -0.5050505E-02  0.1930047E-09  0.0000000E+00  0.3466464E-07
 -0.5049253E-02  0.0000000E+00 -0.5050505E-02  0.2008664E-09  0.0000000E+00  0.3479742E-07
 -0.5048636E-02  0.0000000E+00 -0.5050505E-02  0.2079285E-09  0.0000000E+00  0.3493523E-07
 -0.5047442E-02  0.0000000E+00 -0.5050505E-02  0.2141603E-09  0.0000000E+00  0.3507752E-07
 -0.5045727E-02  0.0000000E+00 -0.5050505E-02  0.2195338E-09  0.0000000E+00  0.3522373E-07
 -0.5043261E-02  0.0000000E+00 -0.5050505E-02  0.2240244E-09  0.0000000E+00  0.3537326E-07
 -0.5038714E-02  0.0000000E+00 -0.5050505E-02  0.2276105E-09  0.0000000E+00  0.3552552E-07
 -0.5032318E-02  0.0000000E+00 -0.5050505E-02  0.2302743E-09  0.0000000E+00  0.3567989E-07
 -0.5022454E-02  0.0000000E+00 -0.5050505E-02  0.2320013E-09  0.0000000E+00  0.3583574E-07
 -0.5012589E-02  0.0000000E+00 -0.5050505E-02  0.2327807E-09  0.0000000E+00  0.3599243E-07
 -0.5002725E-02  0.0000000E+00 -0.5050505E-02  0.2326057E-09  0.0000000E+00  0.3614933E-07
 -0.4992860E-02  0.0000000E+00 -0.5050505E-02  0.2314730E-09  0.0000000E+00  0.3630579E-07
 -0.4976523E-02  0.0000000E+00 -0.5050505E-02  0.2293836E-09  0.0000000E+00  0.3646117E-07
 -0.4956794E-02  0.0000000E+00 -0.5050505E-02  0.2263422E-09  0.0000000E+00  0.3661482E-07
 -0.4937066E-02  0.0000000E+00 -0.5050505E-02  0.2223576E-09  0.0000000E+00  0.3676610E-07
 -0.4906239E-02  0.0000000E+00 -0.5050505E-02  0.2174426E-09  0.0000000E+00  0.3691439E-07
 -0.4866782E-02  0.0000000E+00 -0.5050505E-02  0.2116141E-09  0.0000000E+00  0.3705905E-07
 -0.4827325E-02  0.0000000E+00 -0.5050505E-02  0.2048930E-09  0.0000000E+00  0.3719948E-07
 -0.4769372E-02  0.0000000E+00 -0.5050505E-02  0.1973040E-09  0.0000000E+00  0.3733509E-07
 -0.4690458E-02  0.0000000E+00 -0.5050505E-02  0.1888758E-09  0.0000000E+00  0.3746531E-07
 -0.4611543E-02  0.0000000E+00 -0.5050505E-02  0.1796409E-09  0.0000000E+00  0.3758956E-07
 -0.4503035E-02  0.0000000E+00 -0.5050505E-02  0.1696355E-09  0.0000000E+00  0.3770733E-07
 -0.4345206E-02  0.0000000E+00 -0.5050505E-02  0.1588992E-09  0.0000000E+00  0.3781811E-07
 -0.4187378E-02  0.0000000E+00 -0.5050505E-02  0.1474750E-09  0.0000000E+00  0.3792142E-07
 -0.3985156E-02  0.0000000E+00 -0.5050505E-02  0.1354090E-09  0.0000000E+00  0.3801681E-07
 -0.3669499E-02  0.0000000E+00 -0.5050505E-02  0.1227499E-09  0.0000000E+00  0.3810386E-07
 -0.3353842E-02  0.0000000E+00 -0.5050505E-02  0.1095488E-09  0.0000000E+00  0.3818220E-07
 -0.2978990E-02  0.0000000E+00 -0.5050505E-02  0.9585838E-10  0.0000000E+00  0.3825147E-07
 -0.2347676E-02  0.0000000E+00 -0.5050505E-02  0.8173258E-10  0.0000000E+00  0.3831136E-07
 -0.1716362E-02  0.0000000E+00 -0.5050505E-02  0.6722551E-10  0.0000000E+00  0.3836160E-07
 -0.1025842E-02  0.0000000E+00 -0.5050505E-02  0.5239173E-10  0.0000000E+00  0.3840194E-07
  0.2367855E-03  0.0000000E+00 -0.5050505E-02  0.3728756E-10  0.0000000E+00  0.3843219E-07
  0.1499413E-02  0.0000000E+00 -0.5050505E-02  0.2197536E-10  0.0000000E+00  0.3845218E-07
  0.2762042E-02  0.0000000E+00 -0.5050505E-02  0.6529793E-11  0.0000000E+00  0.3846180E-07
 -0.5050505E-02  0.0000000E+00 -0.5050505E-02 -0.8956670E-11  0.0000000E+00  0.3846100E-07
 -0.5050505E-02  0.0000000E+00 -0.5050505E-02 -0.2438798E-10  0.0000000E+00  0.3844975E-07
 -0.5050505E-02  0.0000000E+00 -0.5050505E-02 -0.3983964E-10  0.0000000E+00  0.3842810E-07
 -0.5050505E-02  0.0000000E+00 -0.5050505E-02 -0.5508209E-10  0.0000000E+00  0.3839611E-07
 -0.5050505E-02  0.0000000E+00 -0.5050505E-02 -0.7005816E-10  0.0000000E+00  0.3835393E-07
 -0.5050505E-02  0.0000000E+00 -0.5050505E-02 -0.8472940E-10  0.0000000E+00  0.3830175E-07
 -0.5050505E-02  0.0000000E+00 -0.5050505E-02 -0.9905010E-10  0.0000000E+00  0.3823980E-07
 -0.5050504E-02  0.0000000E+00 -0.5050505E-02 -0.1129680E-09  0.0000000E+00  0.3816833E-07
 -0.5050501E-02  0.0000000E+00 -0.5050505E-02 -0.1264284E-09  0.0000000E+00  0.3808762E-07
 -0.5050495E-02  0.0000000E+00 -0.5050505E-02 -0.1393762E-09  0.0000000E+00  0.3799801E-07
 -0.5050482E-02  0.0000000E+00 -0.5050505E-02 -0.1517581E-09  0.0000000E+00  0.3789986E-07
 -0.5050449E-02  0.0000000E+00 -0.5050505E-02 -0.1635231E-09  0.0000000E+00  0.3779357E-07
 -0.5050376E-02  0.0000000E+00 -0.5050505E-02 -0.1746225E-09  0.0000000E+00  0.3767957E-07
 -0.5050299E-02  0.0000000E+00 -0.5050505E-02 -0.1850111E-09  0.0000000E+00  0.3755833E-07
 -0.5050178E-02  0.0000000E+00 -0.5050505E-02 -0.1946466E-09  0.0000000E+00  0.3743034E-07
 -0.5050018E-02  0.0000000E+00 -0.5050505E-02 -0.2034902E-09  0.0000000E+00  0.3729611E-07
 -0.5049710E-02  0.0000000E+00 -0.5050505E-02 -0.2115065E-09  0.0000000E+00  0.3715620E-07
 -0.5049253E-02  0.0000000E+00 -0.5050505E-02 -0.2186637E-09  0.0000000E+00  0.3701118E-07
 -0.5048636E-02  0.0000000E+00 -0.5050505E-02 -0.2249339E-09  0.0000000E+00  0.3686163E-07
 -0.5047442E-02  0.0000000E+00 -0.5050505E-02 -0.2302926E-09  0.0000000E+00  0.3670816E-07
 -0.5045727E-02  0.0000000E+00 -0.5050505E-02 -0.2347192E-09  0.0000000E+00  0.3655139E-07
 -0.5043261E-02  0.0000000E+00 -0.5050505E-02 -0.2381968E-09  0.0000000E+00  0.3639196E-07
 -0.5038714E-02  0.0000000E+00 -0.5050505E-02 -0.2407122E-09  0.0000000E+00  0.3623051E-07
 -0.5032318E-02  0.0000000E+00 -0.5050505E-02 -0.2422555E-09  0.0000000E+00  0.3606769E-07
 -0.5022454E-02  0.0000000E+00 -0.5050505E-02 -0.2428206E-09  0.0000000E+00  0.3590416E-07
 -0.5012589E-02  0.0000000E+00 -0.5050505E-02 -0.2424042E-09  0.0000000E+00  0.3574058E-07
 -0.5002725E-02  0.0000000E+00 -0.5050505E-02 -0.2410060E-09  0.0000000E+00  0.3557760E-07
 -0.4992860E-02  0.0000000E+00 -0.5050505E-02 -0.2386285E-09  0.0000000E+00  0.3541590E-07
 -0.4976523E-02  0.0000000E+00 -0.5050505E-02 -0.2352759E-09  0.0000000E+00  0.3525613E-07
 -0.4956794E-02  0.0000000E+00 -0.5050505E-02 -0.2309538E-09  0.0000000E+00  0.3509894E-07
 -0.4937066E-02  0.0000000E+00 -0.5050505E-02 -0.2256682E-09  0.0000000E+00  0.3494499E-07
 -0.4906239E-02  0.0000000E+00 -0.5050505E-02 -0.2194240E-09  0.0000000E+00  0.3479491E-07
 -0.4866782E-02  0.0000000E+00 -0.5050505E-02 -0.2122232E-09  0.0000000E+00  0.3464935E-07
 -0.4827325E-02  0.0000000E+00 -0.5050505E-02 -0.2040621E-09  0.0000000E+00  0.3450895E-07
 -0.4769372E-02  0.0000000E+00 -0.5050505E-02 -0.1949266E-09  0.0000000E+00  0.3437435E-07
 -0.4690458E-02  0.0000000E+00 -0.5050505E-02 -0.1847860E-09  0.0000000E+00  0.3424622E-07
 -0.4611543E-02  0.0000000E+00 -0.5050505E-02 -0.1735816E-09  0.0000000E+00  0.3412522E-07
 -0.4503035E-02  0.0000000E+00 -0.5050505E-02 -0.1612095E-09  0.0000000E+00  0.3401207E-07
 -0.4345206E-02  0.0000000E+00 -0.5050505E-02 -0.1474896E-09  0.0000000E+00  0.3390758E-07
 -0.4187378E-02  0.0000000E+00 -0.5050505E-02 -0.1321118E-09  0.0000000E+00  0.3381266E-07
 -0.3985156E-02  0.0000000E+00 -0.5050505E-02 -0.1145368E-09  0.0000000E+00  0.3372842E-07
 -0.3669499E-02  0.0000000E+00 -0.5050505E-02 -0.9380474E-10  0.0000000E+00  0.3365633E-07
 -0.3353842E-02  0.0000000E+00 -0.5050505E-02 -0.6814855E-10  0.0000000E+00  0.3359837E-07
 -0.2978990E-02  0.0000000E+00 -0.5050505E-02 -0.3416249E-10  0.0000000E+00  0.3355729E-07
 -0.2347676E-02  0.0000000E+00 -0.5050505E-02  0.1510039E-10  0.0000000E+00  0.3353677E-07
 -0.1716362E-02  0.0000000E+00 -0.5050505E-02  0.9473073E-10  0.0000000E+00  0.3354025E-07
 -0.1025842E-02  0.0000000E+00 -0.5050505E-02  0.2395934E-09  0.0000000E+00  0.3356314E-07
  0.2367855E-03  0.0000000E+00 -0.5050505E-02  0.5358604E-09  0.0000000E+00  0.3355364E-07
  0.1499413E-02  0.0000000E+00 -0.5050505E-02  0.1208869E-08  0.0000000E+00  0.3322897E-07
  0.5287294E-02  0.0000000E+00 -0.5050505E-02  0.2875130E-08  0.0000000E+00  0.3122199E-07
 -0.5050505E-02  0.0000000E+00 -0.5050505E-02  0.1127835E-10  0.0000000E+00  0.3364224E-07
 -0.5050505E-02  0.0000000E+00 -0.5050505E-02  0.3576001E-10  0.0000000E+00  0.3365206E-07
 -0.5050505E-02  0.0000000E+00 -0.5050505E-02  0.6060495E-10  0.0000000E+00  0.3367186E-07
 -0.5050505E-02  0.0000000E+00 -0.5050505E-02  0.8481892E-10  0.0000000E+00  0.3370162E-07
 -0.5050505E-02  0.0000000E+00 -0.5050505E-02  0.1085762E-09  0.0000000E+00  0.3374115E-07
 -0.5050505E-02  0.0000000E+00 -0.5050505E-02  0.1318510E-09  0.0000000E+00  0.3379027E-07
 -0.5050504E-02  0.0000000E+00 -0.5050505E-02  0.1545836E-09  0.0000000E+00  0.3384878E-07
 -0.5050501E-02  0.0000000E+00 -0.5050505E-02  0.1767008E-09  0.0000000E+00  0.3391646E-07
 -0.5050495E-02  0.0000000E+00 -0.5050505E-02  0.1981234E-09  0.0000000E+00  0.3399303E-07
 -0.5050482E-02  0.0000000E+00 -0.5050505E-02  0.2187706E-09  0.0000000E+00  0.3407819E-07
 -0.5050449E-02  0.0000000E+00 -0.5050505E-02  0.2385621E-09  0.0000000E+00  0.3417161E-07
 -0.5050376E-02  0.0000000E+00 -0.5050505E-02  0.2574196E-09  0.0000000E+00  0.3427293E-07
 -0.5050299E-02  0.0000000E+00 -0.5050505E-02  0.2752674E-09  0.0000000E+00  0.3438175E-07
 -0.5050178E-02  0.0000000E+00 -0.5050505E-02  0.2920329E-09  0.0000000E+00  0.3449765E-07
 -0.5050018E-02  0.0000000E+00 -0.5050505E-02  0.3076473E-09  0.0000000E+00  0.3462016E-07
 -0.5049710E-02  0.0000000E+00 -0.5050505E-02  0.3220453E-09  0.0000000E+00  0.3474881E-07
 -0.5049253E-02  0.0000000E+00 -0.5050505E-02  0.3351661E-09  0.0000000E+00  0.3488308E-07
 -0.5048636E-02  0.0000000E+00 -0.5050505E-02  0.3469534E-09  0.0000000E+00  0.3502244E-07
 -0.5047442E-02  0.0000000E+00 -0.5050505E-02  0.3573554E-09  0.0000000E+00  0.3516635E-07
 -0.5045727E-02  0.0000000E+00 -0.5050505E-02  0.3663257E-09  0.0000000E+00  0.3531421E-07
 -0.5043261E-02  0.0000000E+00 -0.5050505E-02  0.3738228E-09  0.0000000E+00  0.3546545E-07
 -0.5038714E-02  0.0000000E+00 -0.5050505E-02  0.3798110E-09  0.0000000E+00  0.3561944E-07
 -0.5032318E-02  0.0000000E+00 -0.5050505E-02  0.3842602E-09  0.0000000E+00  0.3577557E-07
 -0.5022454E-02  0.0000000E+00 -0.5050505E-02  0.3871464E-09  0.0000000E+00  0.3593321E-07
 -0.5012589E-02  0.0000000E+00 -0.5050505E-02  0.3884515E-09  0.0000000E+00  0.3609171E-07
 -0.5002725E-02  0.0000000E+00 -0.5050505E-02  0.3881639E-09  0.0000000E+00  0.3625042E-07
 -0.4992860E-02  0.0000000E+00 -0.5050505E-02  0.3862783E-09  0.0000000E+00  0.3640870E-07
 -0.4976523E-02  0.0000000E+00 -0.5050505E-02  0.3827961E-09  0.0000000E+00  0.3656588E-07
 -0.4956794E-02  0.0000000E+00 -0.5050505E-02  0.3777250E-09  0.0000000E+00  0.3672132E-07
 -0.4937066E-02  0.0000000E+00 -0.5050505E-02  0.3710799E-09  0.0000000E+00  0.3687436E-07
 -0.4906239E-02  0.0000000E+00 -0.5050505E-02  0.3628820E-09  0.0000000E+00  0.3702439E-07
 -0.4866782E-02  0.0000000E+00 -0.5050505E-02  0.3531593E-09  0.0000000E+00  0.3717075E-07
 -0.4827325E-02  0.0000000E+00 -0.5050505E-02  0.3419467E-09  0.0000000E+00  0.3731284E-07
 -0.4769372E-02  0.0000000E+00 -0.5050505E-02  0.3292854E-09  0.0000000E+00  0.3745005E-07
 -0.4690458E-02  0.0000000E+00 -0.5050505E-02  0.3152234E-09  0.0000000E+00  0.3758181E-07
 -0.4611543E-02  0.0000000E+00 -0.5050505E-02  0.2998148E-09  0.0000000E+00  0.3770754E-07
 -0.4503035E-02  0.0000000E+00 -0.5050505E-02  0.2831199E-09  0.0000000E+00  0.3782672E-07
 -0.4345206E-02  0.0000000E+00 -0.5050505E-02  0.2652049E-09  0.0000000E+00  0.3793883E-07
 -0.4187378E-02  0.0000000E+00 -0.5050505E-02  0.2461415E-09  0.0000000E+00  0.3804338E-07
 -0.3985156E-02  0.0000000E+00 -0.5050505E-02  0.2260068E-09  0.0000000E+00  0.3813992E-07
 -0.3669499E-02  0.0000000E+00 -0.5050505E-02  0.2048820E-09  0.0000000E+00  0.3822803E-07
 -0.3353842E-02  0.0000000E+00 -0.5050505E-02  0.1828527E-09  0.0000000E+00  0.3830732E-07
 -0.2978990E-02  0.0000000E+00 -0.5050505E-02  0.1600067E-09  0.0000000E+00  0.3837743E-07
 -0.2347676E-02  0.0000000E+00 -0.5050505E-02  0.1364339E-09  0.0000000E+00  0.3843807E-07
 -0.1716362E-02  0.0000000E+00 -0.5050505E-02  0.1122240E-09  0.0000000E+00  0.3848893E-07
 -0.1025842E-02  0.0000000E+00 -0.5050505E-02  0.8746670E-10  0.0000000E+00  0.3852979E-07
  0.2367855E-03  0.0000000E+00 -0.5050505E-02  0.6225467E-10  0.0000000E+00  0.3856043E-07
  0.1499413E-02  0.0000000E+00 -0.5050505E-02  0.3669437E-10  0.0000000E+00  0.3858068E-07
  0.2762042E-02  0.0000000E+00 -0.5050505E-02  0.1093150E-10  0.0000000E+00  0.3859045E-07
 -0.5050505E-02  0.0000000E+00 -0.5050505E-02 -0.1492910E-10  0.0000000E+00  0.3858966E-07
 -0.5050505E-02  0.0000000E+00 -0.5050505E-02 -0.4069485E-10  0.0000000E+00  0.3857831E-07
 -0.5050505E-02  0.0000000E+00 -0.5050505E-02 -0.6646251E-10  0.0000000E+00  0.3855643E-07
 -0.5050505E-02  0.0000000E+00 -0.5050505E-02 -0.9189364E-10  0.0000000E+00  0.3852409E-07
 -0.5050505E-02  0.0000000E+00 -0.5050505E-02 -0.1168874E-09  0.0000000E+00  0.3848145E-07
 -0.5050505E-02  0.0000000E+00 -0.5050505E-02 -0.1413740E-09  0.0000000E+00  0.3842870E-07
 -0.5050505E-02  0.0000000E+00 -0.5050505E-02 -0.1652752E-09  0.0000000E+00  0.3836605E-07
 -0.5050504E-02  0.0000000E+00 -0.5050505E-02 -0.1885034E-09  0.0000000E+00  0.3829376E-07
 -0.5050501E-02  0.0000000E+00 -0.5050505E-02 -0.2109672E-09  0.0000000E+00  0.3821214E-07
 -0.5050495E-02  0.0000000E+00 -0.5050505E-02 -0.2325752E-09  0.0000000E+00  0.3812151E-07
 -0.5050482E-02  0.0000000E+00 -0.5050505E-02 -0.2532384E-09  0.0000000E+00  0.3802224E-07
 -0.5050449E-02  0.0000000E+00 -0.5050505E-02 -0.2728715E-09  0.0000000E+00  0.3791473E-07
 -0.5050376E-02  0.0000000E+00 -0.5050505E-02 -0.2913937E-09  0.0000000E+00  0.3779942E-07
 -0.5050299E-02  0.0000000E+00 -0.5050505E-02 -0.3087293E-09  0.0000000E+00  0.3767679E-07
 -0.5050178E-02  0.0000000E+00 -0.5050505E-02 -0.3248078E-09  0.0000000E+00  0.3754733E-07
 -0.5050018E-02  0.0000000E+00 -0.5050505E-02 -0.3395645E-09  0.0000000E+00  0.3741157E-07
 -0.5049710E-02  0.0000000E+00 -0.5050505E-02 -0.3529404E-09  0.0000000E+00  0.3727006E-07
 -0.5049253E-02  0.0000000E+00 -0.5050505E-02 -0.3648826E-09  0.0000000E+00  0.3712338E-07
 -0.5048636E-02  0.0000000E+00 -0.5050505E-02 -0.3753444E-09  0.0000000E+00  0.3697212E-07
 -0.5047442E-02  0.0000000E+00 -0.5050505E-02 -0.3842852E-09  0.0000000E+00  0.3681690E-07
 -0.5045727E-02  0.0000000E+00 -0.5050505E-02 -0.3916707E-09  0.0000000E+00  0.3665834E-07
 -0.5043261E-02  0.0000000E+00 -0.5050505E-02 -0.3974728E-09  0.0000000E+00  0.3649709E-07
 -0.5038714E-02  0.0000000E+00 -0.5050505E-02 -0.4016696E-09  0.0000000E+00  0.3633380E-07
 -0.5032318E-02  0.0000000E+00 -0.5050505E-02 -0.4042450E-09  0.0000000E+00  0.3616912E-07
 -0.5022454E-02  0.0000000E+00 -0.5050505E-02 -0.4051888E-09  0.0000000E+00  0.3600373E-07
 -0.5012589E-02  0.0000000E+00 -0.5050505E-02 -0.4044960E-09  0.0000000E+00  0.3583828E-07
 -0.5002725E-02  0.0000000E+00 -0.5050505E-02 -0.4021667E-09  0.0000000E+00  0.3567345E-07
 -0.4992860E-02  0.0000000E+00 -0.5050505E-02 -0.3982052E-09  0.0000000E+00  0.3550989E-07
 -0.4976523E-02  0.0000000E+00 -0.5050505E-02 -0.3926196E-09  0.0000000E+00  0.3534828E-07
 -0.4956794E-02  0.0000000E+00 -0.5050505E-02 -0.3854201E-09  0.0000000E+00  0.3518927E-07
 -0.4937066E-02  0.0000000E+00 -0.5050505E-02 -0.3766184E-09  0.0000000E+00  0.3503351E-07
 -0.4906239E-02  0.0000000E+00 -0.5050505E-02 -0.3662246E-09  0.0000000E+00  0.3488164E-07
 -0.4866782E-02  0.0000000E+00 -0.5050505E-02 -0.3542455E-09  0.0000000E+00  0.3473431E-07
 -0.4827325E-02  0.0000000E+00 -0.5050505E-02 -0.3406795E-09  0.0000000E+00  0.3459215E-07
 -0.4769372E-02  0.0000000E+00 -0.5050505E-02 -0.3255109E-09  0.0000000E+00  0.3445578E-07
 -0.4690458E-02  0.0000000E+00 -0.5050505E-02 -0.3087004E-09  0.0000000E+00  0.3432584E-07
 -0.4611543E-02  0.0000000E+00 -0.5050505E-02 -0.2901705E-09  0.0000000E+00  0.3420295E-07
 -0.4503035E-02  0.0000000E+00 -0.5050505E-02 -0.2697821E-09  0.0000000E+00  0.3408778E-07
 -0.4345206E-02  0.0000000E+00 -0.5050505E-02 -0.2472959E-09  0.0000000E+00  0.3398097E-07
 -0.4187378E-02  0.0000000E+00 -0.5050505E-02 -0.2223080E-09  0.0000000E+00  0.3388324E-07
 -0.3985156E-02  0.0000000E+00 -0.5050505E-02 -0.1941378E-09  0.0000000E+00  0.3379533E-07
 -0.3669499E-02  0.0000000E+00 -0.5050505E-02 -0.1616321E-09  0.0000000E+00  0.3371798E-07
 -0.3353842E-02  0.0000000E+00 -0.5050505E-02 -0.1228168E-09  0.0000000E+00  0.3365184E-07
 -0.2978990E-02  0.0000000E+00 -0.5050505E-02 -0.7427318E-10  0.0000000E+00  0.3359703E-07
 -0.2347676E-02  0.0000000E+00 -0.5050505E-02 -0.9888760E-11  0.0000000E+00  0.3355198E-07
 -0.1716362E-02  0.0000000E+00 -0.5050505E-02  0.8093016E-10  0.0000000E+00  0.3351011E-07
 -0.1025842E-02  0.0000000E+00 -0.5050505E-02  0.2155163E-09  0.0000000E+00  0.3345102E-07
  0.2367855E-03  0.0000000E+00 -0.5050505E-02  0.4155995E-09  0.0000000E+00  0.3331974E-07
  0.1499413E-02  0.0000000E+00 -0.5050505E-02  0.6732605E-09  0.0000000E+00  0.3299468E-07
  0.5287294E-02  0.0000000E+00 -0.5050505E-02  0.7542334E-09  0.0000000E+00  0.3235322E-07
 -0.5050505E-02  0.0000000E+00 -0.5050505E-02  0.1610349E-10  0.0000000E+00  0.3375029E-07
 -0.5050505E-02  0.0000000E+00 -0.5050505E-02  0.5040767E-10  0.0000000E+00  0.3376032E-07
 -0.5050505E-02  0.0000000E+00 -0.5050505E-02  0.8517662E-10  0.0000000E+00  0.3378050E-07
 -0.5050505E-02  0.0000000E+00 -0.5050505E-02  0.1191259E-09  0.0000000E+00  0.3381077E-07
 -0.5050505E-02  0.0000000E+00 -0.5050505E-02  0.1524602E-09  0.0000000E+00  0.3385097E-07
 -0.5050505E-02  0.0000000E+00 -0.5050505E-02  0.1851288E-09  0.0000000E+00  0.3390091E-07
 -0.5050504E-02  0.0000000E+00 -0.5050505E-02  0.2170414E-09  0.0000000E+00  0.3396039E-07
 -0.5050501E-02  0.0000000E+00 -0.5050505E-02  0.2480925E-09  0.0000000E+00  0.3402919E-07
 -0.5050495E-02  0.0000000E+00 -0.5050505E-02  0.2781702E-09  0.0000000E+00  0.3410703E-07
 -0.5050482E-02  0.0000000E+00 -0.5050505E-02  0.3071604E-09  0.0000000E+00  0.3419360E-07
 -0.5050449E-02  0.0000000E+00 -0.5050505E-02  0.3349505E-09  0.0000000E+00  0.3428857E-07
 -0.5050376E-02  0.0000000E+00 -0.5050505E-02  0.3614302E-09  0.0000000E+00  0.3439157E-07
 -0.5050299E-02  0.0000000E+00 -0.5050505E-02  0.3864933E-09  0.0000000E+00  0.3450220E-07
 -0.5050178E-02  0.0000000E+00 -0.5050505E-02  0.4100377E-09  0.0000000E+00  0.3462002E-07
 -0.5050018E-02  0.0000000E+00 -0.5050505E-02  0.4319667E-09  0.0000000E+00  0.3474458E-07
 -0.5049710E-02  0.0000000E+00 -0.5050505E-02  0.4521888E-09  0.0000000E+00  0.3487538E-07
 -0.5049253E-02  0.0000000E+00 -0.5050505E-02  0.4706184E-09  0.0000000E+00  0.3501190E-07
 -0.5048636E-02  0.0000000E+00 -0.5050505E-02  0.4871762E-09  0.0000000E+00  0.3515361E-07
 -0.5047442E-02  0.0000000E+00 -0.5050505E-02  0.5017898E-09  0.0000000E+00  0.3529993E-07
 -0.5045727E-02  0.0000000E+00 -0.5050505E-02  0.5143934E-09  0.0000000E+00  0.3545030E-07
 -0.5043261E-02  0.0000000E+00 -0.5050505E-02  0.5249292E-09  0.0000000E+00  0.3560409E-07
 -0.5038714E-02  0.0000000E+00 -0.5050505E-02  0.5333465E-09  0.0000000E+00  0.3576070E-07
 -0.5032318E-02  0.0000000E+00 -0.5050505E-02  0.5396033E-09  0.0000000E+00  0.3591949E-07
 -0.5022454E-02  0.0000000E+00 -0.5050505E-02  0.5436654E-09  0.0000000E+00  0.3607982E-07
 -0.5012589E-02  0.0000000E+00 -0.5050505E-02  0.5455074E-09  0.0000000E+00  0.3624103E-07
 -0.5002725E-02  0.0000000E+00 -0.5050505E-02  0.5451130E-09  0.0000000E+00  0.3640247E-07
 -0.4992860E-02  0.0000000E+00 -0.5050505E-02  0.5424745E-09  0.0000000E+00  0.3656347E-07
 -0.4976523E-02  0.0000000E+00 -0.5050505E-02  0.5375936E-09  0.0000000E+00  0.3672337E-07
 -0.4956794E-02  0.0000000E+00 -0.5050505E-02  0.5304813E-09  0.0000000E+00  0.3688150E-07
 -0.4937066E-02  0.0000000E+00 -0.5050505E-02  0.5211581E-09  0.0000000E+00  0.3703721E-07