title = "dataset feddes"
variables = "x", "y", "z", "vx", "vy", "vz"
zone t = "velocities, solution time =  4.500E+01 days        " i =   99, j =   99, k =    1,  f=point
 -0.5050505E-02  0.0000000E+00 -0.5050505E-02  0.4946325E-10  0.0000000E+00  0.3846858E-06
 -0.5050505E-02  0.0000000E+00 -0.5050505E-02  0.1482512E-09  0.0000000E+00  0.3848846E-06
 -0.5050505E-02  0.0000000E+00 -0.5050505E-02  0.2464980E-09  0.0000000E+00  0.3852816E-06
 -0.5050505E-02  0.0000000E+00 -0.5050505E-02  0.3438014E-09  0.0000000E+00  0.3858752E-06
 -0.5050505E-02  0.0000000E+00 -0.5050505E-02  0.4397956E-09  0.0000000E+00  0.3866633E-06
 -0.5050505E-02  0.0000000E+00 -0.5050505E-02  0.5341152E-09  0.0000000E+00  0.3876427E-06
 -0.5050504E-02  0.0000000E+00 -0.5050505E-02  0.6264006E-09  0.0000000E+00  0.3888098E-06
 -0.5050501E-02  0.0000000E+00 -0.5050505E-02  0.7162955E-09  0.0000000E+00  0.3901601E-06
 -0.5050495E-02  0.0000000E+00 -0.5050505E-02  0.8034501E-09  0.0000000E+00  0.3916885E-06
 -0.5050482E-02  0.0000000E+00 -0.5050505E-02  0.8875233E-09  0.0000000E+00  0.3933891E-06
 -0.5050449E-02  0.0000000E+00 -0.5050505E-02  0.9681810E-09  0.0000000E+00  0.3952553E-06
 -0.5050376E-02  0.0000000E+00 -0.5050505E-02  0.1045101E-08  0.0000000E+00  0.3972800E-06
 -0.5050299E-02  0.0000000E+00 -0.5050505E-02  0.1117970E-08  0.0000000E+00  0.3994554E-06
 -0.5050178E-02  0.0000000E+00 -0.5050505E-02  0.1186490E-08  0.0000000E+00  0.4017729E-06
 -0.5050018E-02  0.0000000E+00 -0.5050505E-02  0.1250373E-08  0.0000000E+00  0.4042236E-06
 -0.5049710E-02  0.0000000E+00 -0.5050505E-02  0.1309349E-08  0.0000000E+00  0.4067978E-06
 -0.5049253E-02  0.0000000E+00 -0.5050505E-02  0.1363161E-08  0.0000000E+00  0.4094855E-06
 -0.5048636E-02  0.0000000E+00 -0.5050505E-02  0.1411571E-08  0.0000000E+00  0.4122760E-06
 -0.5047442E-02  0.0000000E+00 -0.5050505E-02  0.1454359E-08  0.0000000E+00  0.4151582E-06
 -0.5045727E-02  0.0000000E+00 -0.5050505E-02  0.1491324E-08  0.0000000E+00  0.4181206E-06
 -0.5043261E-02  0.0000000E+00 -0.5050505E-02  0.1522285E-08  0.0000000E+00  0.4211513E-06
 -0.5038714E-02  0.0000000E+00 -0.5050505E-02  0.1547084E-08  0.0000000E+00  0.4242381E-06
 -0.5032318E-02  0.0000000E+00 -0.5050505E-02  0.1565586E-08  0.0000000E+00  0.4273684E-06
 -0.5022454E-02  0.0000000E+00 -0.5050505E-02  0.1577678E-08  0.0000000E+00  0.4305295E-06
 -0.5012589E-02  0.0000000E+00 -0.5050505E-02  0.1583274E-08  0.0000000E+00  0.4337084E-06
 -0.5002725E-02  0.0000000E+00 -0.5050505E-02  0.1582313E-08  0.0000000E+00  0.4368920E-06
 -0.4992860E-02  0.0000000E+00 -0.5050505E-02  0.1574760E-08  0.0000000E+00  0.4400669E-06
 -0.4976523E-02  0.0000000E+00 -0.5050505E-02  0.1560607E-08  0.0000000E+00  0.4432201E-06
 -0.4956794E-02  0.0000000E+00 -0.5050505E-02  0.1539876E-08  0.0000000E+00  0.4463382E-06
 -0.4937066E-02  0.0000000E+00 -0.5050505E-02  0.1512615E-08  0.0000000E+00  0.4494080E-06
 -0.4906239E-02  0.0000000E+00 -0.5050505E-02  0.1478903E-08  0.0000000E+00  0.4524165E-06
 -0.4866782E-02  0.0000000E+00 -0.5050505E-02  0.1438844E-08  0.0000000E+00  0.4553508E-06
 -0.4827325E-02  0.0000000E+00 -0.5050505E-02  0.1392575E-08  0.0000000E+00  0.4581983E-06
 -0.4769372E-02  0.0000000E+00 -0.5050505E-02  0.1340261E-08  0.0000000E+00  0.4609466E-06
 -0.4690458E-02  0.0000000E+00 -0.5050505E-02  0.1282093E-08  0.0000000E+00  0.4635839E-06
 -0.4611543E-02  0.0000000E+00 -0.5050505E-02  0.1218291E-08  0.0000000E+00  0.4660985E-06
 -0.4503035E-02  0.0000000E+00 -0.5050505E-02  0.1149105E-08  0.0000000E+00  0.4684793E-06
 -0.4345206E-02  0.0000000E+00 -0.5050505E-02  0.1074808E-08  0.0000000E+00  0.4707158E-06
 -0.4187378E-02  0.0000000E+00 -0.5050505E-02  0.9957005E-09  0.0000000E+00  0.4727981E-06
 -0.3985156E-02  0.0000000E+00 -0.5050505E-02  0.9121058E-09  0.0000000E+00  0.4747167E-06
 -0.3669499E-02  0.0000000E+00 -0.5050505E-02  0.8243708E-09  0.0000000E+00  0.4764631E-06
 -0.3353842E-02  0.0000000E+00 -0.5050505E-02  0.7328637E-09  0.0000000E+00  0.4780291E-06
 -0.2978990E-02  0.0000000E+00 -0.5050505E-02  0.6379719E-09  0.0000000E+00  0.4794078E-06
 -0.2347676E-02  0.0000000E+00 -0.5050505E-02  0.5401008E-09  0.0000000E+00  0.4805925E-06
 -0.1716362E-02  0.0000000E+00 -0.5050505E-02  0.4396709E-09  0.0000000E+00  0.4815779E-06
 -0.1025842E-02  0.0000000E+00 -0.5050505E-02  0.3371167E-09  0.0000000E+00  0.4823591E-06
  0.2367855E-03  0.0000000E+00 -0.5050505E-02  0.2328838E-09  0.0000000E+00  0.4829323E-06
  0.1499413E-02  0.0000000E+00 -0.5050505E-02  0.1274269E-09  0.0000000E+00  0.4832946E-06
  0.2762042E-02  0.0000000E+00 -0.5050505E-02  0.2120723E-10  0.0000000E+00  0.4834441E-06
 -0.5050505E-02  0.0000000E+00 -0.5050505E-02 -0.8530709E-10  0.0000000E+00  0.4833797E-06
 -0.5050505E-02  0.0000000E+00 -0.5050505E-02 -0.1916505E-09  0.0000000E+00  0.4831011E-06
 -0.5050505E-02  0.0000000E+00 -0.5050505E-02 -0.2973662E-09  0.0000000E+00  0.4826093E-06
 -0.5050505E-02  0.0000000E+00 -0.5050505E-02 -0.4019833E-09  0.0000000E+00  0.4819060E-06
 -0.5050505E-02  0.0000000E+00 -0.5050505E-02 -0.5050462E-09  0.0000000E+00  0.4809938E-06
 -0.5050505E-02  0.0000000E+00 -0.5050505E-02 -0.6061061E-09  0.0000000E+00  0.4798764E-06
 -0.5050505E-02  0.0000000E+00 -0.5050505E-02 -0.7047270E-09  0.0000000E+00  0.4785581E-06
 -0.5050504E-02  0.0000000E+00 -0.5050505E-02 -0.8004842E-09  0.0000000E+00  0.4770443E-06
 -0.5050501E-02  0.0000000E+00 -0.5050505E-02 -0.8929678E-09  0.0000000E+00  0.4753413E-06
 -0.5050495E-02  0.0000000E+00 -0.5050505E-02 -0.9817862E-09  0.0000000E+00  0.4734559E-06
 -0.5050482E-02  0.0000000E+00 -0.5050505E-02 -0.1066565E-08  0.0000000E+00  0.4713959E-06
 -0.5050449E-02  0.0000000E+00 -0.5050505E-02 -0.1146951E-08  0.0000000E+00  0.4691698E-06
 -0.5050376E-02  0.0000000E+00 -0.5050505E-02 -0.1222614E-08  0.0000000E+00  0.4667868E-06
 -0.5050299E-02  0.0000000E+00 -0.5050505E-02 -0.1293246E-08  0.0000000E+00  0.4642567E-06
 -0.5050178E-02  0.0000000E+00 -0.5050505E-02 -0.1358563E-08  0.0000000E+00  0.4615898E-06
 -0.5050018E-02  0.0000000E+00 -0.5050505E-02 -0.1418310E-08  0.0000000E+00  0.4587972E-06
 -0.5049710E-02  0.0000000E+00 -0.5050505E-02 -0.1472255E-08  0.0000000E+00  0.4558902E-06
 -0.5049253E-02  0.0000000E+00 -0.5050505E-02 -0.1520194E-08  0.0000000E+00  0.4528808E-06
 -0.5048636E-02  0.0000000E+00 -0.5050505E-02 -0.1561951E-08  0.0000000E+00  0.4497811E-06
 -0.5047442E-02  0.0000000E+00 -0.5050505E-02 -0.1597377E-08  0.0000000E+00  0.4466039E-06
 -0.5045727E-02  0.0000000E+00 -0.5050505E-02 -0.1626352E-08  0.0000000E+00  0.4433618E-06
 -0.5043261E-02  0.0000000E+00 -0.5050505E-02 -0.1648781E-08  0.0000000E+00  0.4400681E-06
 -0.5038714E-02  0.0000000E+00 -0.5050505E-02 -0.1664598E-08  0.0000000E+00  0.4367359E-06
 -0.5032318E-02  0.0000000E+00 -0.5050505E-02 -0.1673762E-08  0.0000000E+00  0.4333786E-06
 -0.5022454E-02  0.0000000E+00 -0.5050505E-02 -0.1676258E-08  0.0000000E+00  0.4300096E-06
 -0.5012589E-02  0.0000000E+00 -0.5050505E-02 -0.1672095E-08  0.0000000E+00  0.4266422E-06
 -0.5002725E-02  0.0000000E+00 -0.5050505E-02 -0.1661305E-08  0.0000000E+00  0.4232899E-06
 -0.4992860E-02  0.0000000E+00 -0.5050505E-02 -0.1643938E-08  0.0000000E+00  0.4199659E-06
 -0.4976523E-02  0.0000000E+00 -0.5050505E-02 -0.1620066E-08  0.0000000E+00  0.4166834E-06
 -0.4956794E-02  0.0000000E+00 -0.5050505E-02 -0.1589772E-08  0.0000000E+00  0.4134553E-06
 -0.4937066E-02  0.0000000E+00 -0.5050505E-02 -0.1553151E-08  0.0000000E+00  0.4102946E-06
 -0.4906239E-02  0.0000000E+00 -0.5050505E-02 -0.1510303E-08  0.0000000E+00  0.4072137E-06
 -0.4866782E-02  0.0000000E+00 -0.5050505E-02 -0.1461323E-08  0.0000000E+00  0.4042253E-06
 -0.4827325E-02  0.0000000E+00 -0.5050505E-02 -0.1406289E-08  0.0000000E+00  0.4013414E-06
 -0.4769372E-02  0.0000000E+00 -0.5050505E-02 -0.1345246E-08  0.0000000E+00  0.3985742E-06
 -0.4690458E-02  0.0000000E+00 -0.5050505E-02 -0.1278175E-08  0.0000000E+00  0.3959359E-06
 -0.4611543E-02  0.0000000E+00 -0.5050505E-02 -0.1204950E-08  0.0000000E+00  0.3934387E-06
 -0.4503035E-02  0.0000000E+00 -0.5050505E-02 -0.1125260E-08  0.0000000E+00  0.3910953E-06
 -0.4345206E-02  0.0000000E+00 -0.5050505E-02 -0.1038479E-08  0.0000000E+00  0.3889193E-06
 -0.4187378E-02  0.0000000E+00 -0.5050505E-02 -0.9434282E-09  0.0000000E+00  0.3869261E-06
 -0.3985156E-02  0.0000000E+00 -0.5050505E-02 -0.8379156E-09  0.0000000E+00  0.3851347E-06
 -0.3669499E-02  0.0000000E+00 -0.5050505E-02 -0.7178196E-09  0.0000000E+00  0.3835701E-06
 -0.3353842E-02  0.0000000E+00 -0.5050505E-02 -0.5751003E-09  0.0000000E+00  0.3822698E-06
 -0.2978990E-02  0.0000000E+00 -0.5050505E-02 -0.3931886E-09  0.0000000E+00  0.3812961E-06
 -0.2347676E-02  0.0000000E+00 -0.5050505E-02 -0.1353416E-09  0.0000000E+00  0.3807645E-06
 -0.1716362E-02  0.0000000E+00 -0.5050505E-02  0.2875173E-09  0.0000000E+00  0.3809176E-06
 -0.1025842E-02  0.0000000E+00 -0.5050505E-02  0.1114355E-08  0.0000000E+00  0.3823274E-06
  0.2367855E-03  0.0000000E+00 -0.5050505E-02  0.3057879E-08  0.0000000E+00  0.3865233E-06
  0.1499413E-02  0.0000000E+00 -0.5050505E-02  0.8473206E-08  0.0000000E+00  0.3981198E-06
  0.5287294E-02  0.0000000E+00 -0.5050505E-02  0.1405079E-06  0.0000000E+00  0.3180642E-06
 -0.5050505E-02  0.0000000E+00 -0.5050505E-02  0.1484402E-09  0.0000000E+00  0.3853518E-06
 -0.5050505E-02  0.0000000E+00 -0.5050505E-02  0.4448747E-09  0.0000000E+00  0.3855519E-06
 -0.5050505E-02  0.0000000E+00 -0.5050505E-02  0.7396838E-09  0.0000000E+00  0.3859514E-06
 -0.5050505E-02  0.0000000E+00 -0.5050505E-02  0.1031666E-08  0.0000000E+00  0.3865488E-06
 -0.5050505E-02  0.0000000E+00 -0.5050505E-02  0.1319723E-08  0.0000000E+00  0.3873419E-06
 -0.5050505E-02  0.0000000E+00 -0.5050505E-02  0.1602758E-08  0.0000000E+00  0.3883276E-06
 -0.5050504E-02  0.0000000E+00 -0.5050505E-02  0.1879691E-08  0.0000000E+00  0.3895021E-06
 -0.5050501E-02  0.0000000E+00 -0.5050505E-02  0.2149452E-08  0.0000000E+00  0.3908611E-06
 -0.5050495E-02  0.0000000E+00 -0.5050505E-02  0.2410994E-08  0.0000000E+00  0.3923992E-06
 -0.5050482E-02  0.0000000E+00 -0.5050505E-02  0.2663292E-08  0.0000000E+00  0.3941107E-06
 -0.5050449E-02  0.0000000E+00 -0.5050505E-02  0.2905344E-08  0.0000000E+00  0.3959889E-06
 -0.5050376E-02  0.0000000E+00 -0.5050505E-02  0.3136182E-08  0.0000000E+00  0.3980267E-06
 -0.5050299E-02  0.0000000E+00 -0.5050505E-02  0.3354869E-08  0.0000000E+00  0.4002161E-06
 -0.5050178E-02  0.0000000E+00 -0.5050505E-02  0.3560507E-08  0.0000000E+00  0.4025486E-06
 -0.5050018E-02  0.0000000E+00 -0.5050505E-02  0.3752235E-08  0.0000000E+00  0.4050152E-06
 -0.5049710E-02  0.0000000E+00 -0.5050505E-02  0.3929239E-08  0.0000000E+00  0.4076062E-06
 -0.5049253E-02  0.0000000E+00 -0.5050505E-02  0.4090751E-08  0.0000000E+00  0.4103115E-06
 -0.5048636E-02  0.0000000E+00 -0.5050505E-02  0.4236056E-08  0.0000000E+00  0.4131202E-06
 -0.5047442E-02  0.0000000E+00 -0.5050505E-02  0.4364491E-08  0.0000000E+00  0.4160213E-06
 -0.5045727E-02  0.0000000E+00 -0.5050505E-02  0.4475453E-08  0.0000000E+00  0.4190033E-06
 -0.5043261E-02  0.0000000E+00 -0.5050505E-02  0.4568401E-08  0.0000000E+00  0.4220540E-06
 -0.5038714E-02  0.0000000E+00 -0.5050505E-02  0.4642860E-08  0.0000000E+00  0.4251613E-06
 -0.5032318E-02  0.0000000E+00 -0.5050505E-02  0.4698421E-08  0.0000000E+00  0.4283125E-06
 -0.5022454E-02  0.0000000E+00 -0.5050505E-02  0.4734748E-08  0.0000000E+00  0.4314947E-06
 -0.5012589E-02  0.0000000E+00 -0.5050505E-02  0.4751581E-08  0.0000000E+00  0.4346949E-06
 -0.5002725E-02  0.0000000E+00 -0.5050505E-02  0.4748734E-08  0.0000000E+00  0.4378999E-06
 -0.4992860E-02  0.0000000E+00 -0.5050505E-02  0.4726105E-08  0.0000000E+00  0.4410963E-06
 -0.4976523E-02  0.0000000E+00 -0.5050505E-02  0.4683670E-08  0.0000000E+00  0.4442709E-06
 -0.4956794E-02  0.0000000E+00 -0.5050505E-02  0.4621491E-08  0.0000000E+00  0.4474101E-06
 -0.4937066E-02  0.0000000E+00 -0.5050505E-02  0.4539714E-08  0.0000000E+00  0.4505009E-06
 -0.4906239E-02  0.0000000E+00 -0.5050505E-02  0.4438571E-08  0.0000000E+00  0.4535301E-06
 -0.4866782E-02  0.0000000E+00 -0.5050505E-02  0.4318382E-08  0.0000000E+00  0.4564846E-06
 -0.4827325E-02  0.0000000E+00 -0.5050505E-02  0.4179552E-08  0.0000000E+00  0.4593517E-06
 -0.4769372E-02  0.0000000E+00 -0.5050505E-02  0.4022573E-08  0.0000000E+00  0.4621191E-06
 -0.4690458E-02  0.0000000E+00 -0.5050505E-02  0.3848024E-08  0.0000000E+00  0.4647747E-06
 -0.4611543E-02  0.0000000E+00 -0.5050505E-02  0.3656565E-08  0.0000000E+00  0.4673068E-06
 -0.4503035E-02  0.0000000E+00 -0.5050505E-02  0.3448942E-08  0.0000000E+00  0.4697043E-06
 -0.4345206E-02  0.0000000E+00 -0.5050505E-02  0.3225976E-08  0.0000000E+00  0.4719566E-06
 -0.4187378E-02  0.0000000E+00 -0.5050505E-02  0.2988567E-08  0.0000000E+00  0.4740536E-06
 -0.3985156E-02  0.0000000E+00 -0.5050505E-02  0.2737689E-08  0.0000000E+00  0.4759858E-06
 -0.3669499E-02  0.0000000E+00 -0.5050505E-02  0.2474381E-08  0.0000000E+00  0.4777446E-06
 -0.3353842E-02  0.0000000E+00 -0.5050505E-02  0.2199748E-08  0.0000000E+00  0.4793219E-06
 -0.2978990E-02  0.0000000E+00 -0.5050505E-02  0.1914954E-08  0.0000000E+00  0.4807105E-06
 -0.2347676E-02  0.0000000E+00 -0.5050505E-02  0.1621216E-08  0.0000000E+00  0.4819039E-06
 -0.1716362E-02  0.0000000E+00 -0.5050505E-02  0.1319795E-08  0.0000000E+00  0.4828964E-06
 -0.1025842E-02  0.0000000E+00 -0.5050505E-02  0.1011996E-08  0.0000000E+00  0.4836834E-06
  0.2367855E-03  0.0000000E+00 -0.5050505E-02  0.6991576E-09  0.0000000E+00  0.4842610E-06
  0.1499413E-02  0.0000000E+00 -0.5050505E-02  0.3826443E-09  0.0000000E+00  0.4846263E-06
  0.2762042E-02  0.0000000E+00 -0.5050505E-02  0.6384268E-10  0.0000000E+00  0.4847772E-06
 -0.5050505E-02  0.0000000E+00 -0.5050505E-02 -0.2558466E-09  0.0000000E+00  0.4847127E-06
 -0.5050505E-02  0.0000000E+00 -0.5050505E-02 -0.5750227E-09  0.0000000E+00  0.4844326E-06
 -0.5050505E-02  0.0000000E+00 -0.5050505E-02 -0.8923118E-09  0.0000000E+00  0.4839378E-06
 -0.5050505E-02  0.0000000E+00 -0.5050505E-02 -0.1206303E-08  0.0000000E+00  0.4832299E-06
 -0.5050505E-02  0.0000000E+00 -0.5050505E-02 -0.1515628E-08  0.0000000E+00  0.4823118E-06
 -0.5050505E-02  0.0000000E+00 -0.5050505E-02 -0.1818940E-08  0.0000000E+00  0.4811869E-06
 -0.5050505E-02  0.0000000E+00 -0.5050505E-02 -0.2114928E-08  0.0000000E+00  0.4798599E-06
 -0.5050504E-02  0.0000000E+00 -0.5050505E-02 -0.2402320E-08  0.0000000E+00  0.4783360E-06
 -0.5050501E-02  0.0000000E+00 -0.5050505E-02 -0.2679884E-08  0.0000000E+00  0.4766215E-06
 -0.5050495E-02  0.0000000E+00 -0.5050505E-02 -0.2946444E-08  0.0000000E+00  0.4747235E-06
 -0.5050482E-02  0.0000000E+00 -0.5050505E-02 -0.3200876E-08  0.0000000E+00  0.4726497E-06
 -0.5050449E-02  0.0000000E+00 -0.5050505E-02 -0.3442122E-08  0.0000000E+00  0.4704087E-06
 -0.5050376E-02  0.0000000E+00 -0.5050505E-02 -0.3669189E-08  0.0000000E+00  0.4680096E-06
 -0.5050299E-02  0.0000000E+00 -0.5050505E-02 -0.3881153E-08  0.0000000E+00  0.4654625E-06
 -0.5050178E-02  0.0000000E+00 -0.5050505E-02 -0.4077165E-08  0.0000000E+00  0.4627778E-06
 -0.5050018E-02  0.0000000E+00 -0.5050505E-02 -0.4256454E-08  0.0000000E+00  0.4599665E-06
 -0.5049710E-02  0.0000000E+00 -0.5050505E-02 -0.4418328E-08  0.0000000E+00  0.4570401E-06
 -0.5049253E-02  0.0000000E+00 -0.5050505E-02 -0.4562176E-08  0.0000000E+00  0.4540106E-06
 -0.5048636E-02  0.0000000E+00 -0.5050505E-02 -0.4687469E-08  0.0000000E+00  0.4508904E-06
 -0.5047442E-02  0.0000000E+00 -0.5050505E-02 -0.4793761E-08  0.0000000E+00  0.4476920E-06
 -0.5045727E-02  0.0000000E+00 -0.5050505E-02 -0.4880690E-08  0.0000000E+00  0.4444286E-06
 -0.5043261E-02  0.0000000E+00 -0.5050505E-02 -0.4947975E-08  0.0000000E+00  0.4411131E-06
 -0.5038714E-02  0.0000000E+00 -0.5050505E-02 -0.4995418E-08  0.0000000E+00  0.4377589E-06
 -0.5032318E-02  0.0000000E+00 -0.5050505E-02 -0.5022897E-08  0.0000000E+00  0.4343795E-06
 -0.5022454E-02  0.0000000E+00 -0.5050505E-02 -0.5030368E-08  0.0000000E+00  0.4309884E-06
 -0.5012589E-02  0.0000000E+00 -0.5050505E-02 -0.5017860E-08  0.0000000E+00  0.4275990E-06
 -0.5002725E-02  0.0000000E+00 -0.5050505E-02 -0.4985467E-08  0.0000000E+00  0.4242247E-06
 -0.4992860E-02  0.0000000E+00 -0.5050505E-02 -0.4933349E-08  0.0000000E+00  0.4208790E-06
 -0.4976523E-02  0.0000000E+00 -0.5050505E-02 -0.4861719E-08  0.0000000E+00  0.4175750E-06
 -0.4956794E-02  0.0000000E+00 -0.5050505E-02 -0.4770833E-08  0.0000000E+00  0.4143257E-06
 -0.4937066E-02  0.0000000E+00 -0.5050505E-02 -0.4660983E-08  0.0000000E+00  0.4111442E-06
 -0.4906239E-02  0.0000000E+00 -0.5050505E-02 -0.4532473E-08  0.0000000E+00  0.4080430E-06
 -0.4866782E-02  0.0000000E+00 -0.5050505E-02 -0.4385600E-08  0.0000000E+00  0.4050345E-06
 -0.4827325E-02  0.0000000E+00 -0.5050505E-02 -0.4220620E-08  0.0000000E+00  0.4021311E-06
 -0.4769372E-02  0.0000000E+00 -0.5050505E-02 -0.4037692E-08  0.0000000E+00  0.3993447E-06
 -0.4690458E-02  0.0000000E+00 -0.5050505E-02 -0.3836807E-08  0.0000000E+00  0.3966873E-06
 -0.4611543E-02  0.0000000E+00 -0.5050505E-02 -0.3617662E-08  0.0000000E+00  0.3941710E-06
 -0.4503035E-02  0.0000000E+00 -0.5050505E-02 -0.3379457E-08  0.0000000E+00  0.3918079E-06
 -0.4345206E-02  0.0000000E+00 -0.5050505E-02 -0.3120554E-08  0.0000000E+00  0.3896108E-06
 -0.4187378E-02  0.0000000E+00 -0.5050505E-02 -0.2837869E-08  0.0000000E+00  0.3875937E-06
 -0.3985156E-02  0.0000000E+00 -0.5050505E-02 -0.2525756E-08  0.0000000E+00  0.3857725E-06
 -0.3669499E-02  0.0000000E+00 -0.5050505E-02 -0.2173835E-08  0.0000000E+00  0.3841666E-06
 -0.3353842E-02  0.0000000E+00 -0.5050505E-02 -0.1762602E-08  0.0000000E+00  0.3828010E-06
 -0.2978990E-02  0.0000000E+00 -0.5050505E-02 -0.1253982E-08  0.0000000E+00  0.3817094E-06
 -0.2347676E-02  0.0000000E+00 -0.5050505E-02 -0.5698629E-09  0.0000000E+00  0.3809353E-06
 -0.1716362E-02  0.0000000E+00 -0.5050505E-02  0.4597054E-09  0.0000000E+00  0.3805193E-06
 -0.1025842E-02  0.0000000E+00 -0.5050505E-02  0.2228780E-08  0.0000000E+00  0.3804113E-06
  0.2367855E-03  0.0000000E+00 -0.5050505E-02  0.5710976E-08  0.0000000E+00  0.3800279E-06
  0.1499413E-02  0.0000000E+00 -0.5050505E-02  0.1345459E-07  0.0000000E+00  0.3761744E-06
  0.5287294E-02  0.0000000E+00 -0.5050505E-02  0.3243390E-07  0.0000000E+00  0.3533963E-06
 -0.5050505E-02  0.0000000E+00 -0.5050505E-02  0.2478273E-09  0.0000000E+00  0.3866859E-06
 -0.5050505E-02  0.0000000E+00 -0.5050505E-02  0.7426857E-09  0.0000000E+00  0.3868886E-06
 -0.5050505E-02  0.0000000E+00 -0.5050505E-02  0.1234826E-08  0.0000000E+00  0.3872932E-06
 -0.5050505E-02  0.0000000E+00 -0.5050505E-02  0.1722257E-08  0.0000000E+00  0.3878982E-06
 -0.5050505E-02  0.0000000E+00 -0.5050505E-02  0.2203142E-08  0.0000000E+00  0.3887013E-06
 -0.5050505E-02  0.0000000E+00 -0.5050505E-02  0.2675653E-08  0.0000000E+00  0.3896995E-06
 -0.5050504E-02  0.0000000E+00 -0.5050505E-02  0.3137982E-08  0.0000000E+00  0.3908890E-06
 -0.5050501E-02  0.0000000E+00 -0.5050505E-02  0.3588349E-08  0.0000000E+00  0.3922652E-06
 -0.5050495E-02  0.0000000E+00 -0.5050505E-02  0.4025003E-08  0.0000000E+00  0.3938230E-06
 -0.5050482E-02  0.0000000E+00 -0.5050505E-02  0.4446234E-08  0.0000000E+00  0.3955563E-06
 -0.5050449E-02  0.0000000E+00 -0.5050505E-02  0.4850372E-08  0.0000000E+00  0.3974586E-06
 -0.5050376E-02  0.0000000E+00 -0.5050505E-02  0.5235799E-08  0.0000000E+00  0.3995224E-06
 -0.5050299E-02  0.0000000E+00 -0.5050505E-02  0.5600952E-08  0.0000000E+00  0.4017400E-06
 -0.5050178E-02  0.0000000E+00 -0.5050505E-02  0.5944330E-08  0.0000000E+00  0.4041026E-06
 -0.5050018E-02  0.0000000E+00 -0.5050505E-02  0.6264498E-08  0.0000000E+00  0.4066010E-06
 -0.5049710E-02  0.0000000E+00 -0.5050505E-02  0.6560095E-08  0.0000000E+00  0.4092256E-06
 -0.5049253E-02  0.0000000E+00 -0.5050505E-02  0.6829839E-08  0.0000000E+00  0.4119660E-06
 -0.5048636E-02  0.0000000E+00 -0.5050505E-02  0.7072533E-08  0.0000000E+00  0.4148113E-06
 -0.5047442E-02  0.0000000E+00 -0.5050505E-02  0.7287071E-08  0.0000000E+00  0.4177504E-06
 -0.5045727E-02  0.0000000E+00 -0.5050505E-02  0.7472446E-08  0.0000000E+00  0.4207714E-06
 -0.5043261E-02  0.0000000E+00 -0.5050505E-02  0.7627752E-08  0.0000000E+00  0.4238623E-06
 -0.5038714E-02  0.0000000E+00 -0.5050505E-02  0.7752192E-08  0.0000000E+00  0.4270106E-06
 -0.5032318E-02  0.0000000E+00 -0.5050505E-02  0.7845085E-08  0.0000000E+00  0.4302036E-06
 -0.5022454E-02  0.0000000E+00 -0.5050505E-02  0.7905868E-08  0.0000000E+00  0.4334281E-06
 -0.5012589E-02  0.0000000E+00 -0.5050505E-02  0.7934103E-08  0.0000000E+00  0.4366710E-06
 -0.5002725E-02  0.0000000E+00 -0.5050505E-02  0.7929480E-08  0.0000000E+00  0.4399189E-06
 -0.4992860E-02  0.0000000E+00 -0.5050505E-02  0.7891823E-08  0.0000000E+00  0.4431583E-06
 -0.4976523E-02  0.0000000E+00 -0.5050505E-02  0.7821094E-08  0.0000000E+00  0.4463757E-06
 -0.4956794E-02  0.0000000E+00 -0.5050505E-02  0.7717392E-08  0.0000000E+00  0.4495575E-06
 -0.4937066E-02  0.0000000E+00 -0.5050505E-02  0.7580960E-08  0.0000000E+00  0.4526903E-06
 -0.4906239E-02  0.0000000E+00 -0.5050505E-02  0.7412184E-08  0.0000000E+00  0.4557608E-06
 -0.4866782E-02  0.0000000E+00 -0.5050505E-02  0.7211596E-08  0.0000000E+00  0.4587557E-06
 -0.4827325E-02  0.0000000E+00 -0.5050505E-02  0.6979871E-08  0.0000000E+00  0.4616623E-06
 -0.4769372E-02  0.0000000E+00 -0.5050505E-02  0.6717830E-08  0.0000000E+00  0.4644679E-06
 -0.4690458E-02  0.0000000E+00 -0.5050505E-02  0.6426437E-08  0.0000000E+00  0.4671602E-06
 -0.4611543E-02  0.0000000E+00 -0.5050505E-02  0.6106797E-08  0.0000000E+00  0.4697276E-06
 -0.4503035E-02  0.0000000E+00 -0.5050505E-02  0.5760149E-08  0.0000000E+00  0.4721585E-06
 -0.4345206E-02  0.0000000E+00 -0.5050505E-02  0.5387869E-08  0.0000000E+00  0.4744423E-06
 -0.4187378E-02  0.0000000E+00 -0.5050505E-02  0.4991458E-08  0.0000000E+00  0.4765688E-06
 -0.3985156E-02  0.0000000E+00 -0.5050505E-02  0.4572541E-08  0.0000000E+00  0.4785283E-06
 -0.3669499E-02  0.0000000E+00 -0.5050505E-02  0.4132855E-08  0.0000000E+00  0.4803121E-06
 -0.3353842E-02  0.0000000E+00 -0.5050505E-02  0.3674247E-08  0.0000000E+00  0.4819119E-06
 -0.2978990E-02  0.0000000E+00 -0.5050505E-02  0.3198658E-08  0.0000000E+00  0.4833203E-06
 -0.2347676E-02  0.0000000E+00 -0.5050505E-02  0.2708123E-08  0.0000000E+00  0.4845310E-06
 -0.1716362E-02  0.0000000E+00 -0.5050505E-02  0.2204751E-08  0.0000000E+00  0.4855380E-06
 -0.1025842E-02  0.0000000E+00 -0.5050505E-02  0.1690720E-08  0.0000000E+00  0.4863367E-06
  0.2367855E-03  0.0000000E+00 -0.5050505E-02  0.1168266E-08  0.0000000E+00  0.4869231E-06
  0.1499413E-02  0.0000000E+00 -0.5050505E-02  0.6396726E-09  0.0000000E+00  0.4872942E-06
  0.2762042E-02  0.0000000E+00 -0.5050505E-02  0.1072583E-09  0.0000000E+00  0.4874479E-06
 -0.5050505E-02  0.0000000E+00 -0.5050505E-02 -0.4266446E-09  0.0000000E+00  0.4873833E-06
 -0.5050505E-02  0.0000000E+00 -0.5050505E-02 -0.9596897E-09  0.0000000E+00  0.4871000E-06
 -0.5050505E-02  0.0000000E+00 -0.5050505E-02 -0.1489577E-08  0.0000000E+00  0.4865991E-06
 -0.5050505E-02  0.0000000E+00 -0.5050505E-02 -0.2013953E-08  0.0000000E+00  0.4858822E-06
 -0.5050505E-02  0.0000000E+00 -0.5050505E-02 -0.2530532E-08  0.0000000E+00  0.4849521E-06
 -0.5050505E-02  0.0000000E+00 -0.5050505E-02 -0.3037064E-08  0.0000000E+00  0.4838125E-06
 -0.5050505E-02  0.0000000E+00 -0.5050505E-02 -0.3531356E-08  0.0000000E+00  0.4824679E-06
 -0.5050504E-02  0.0000000E+00 -0.5050505E-02 -0.4011284E-08  0.0000000E+00  0.4809237E-06
 -0.5050501E-02  0.0000000E+00 -0.5050505E-02 -0.4474788E-08  0.0000000E+00  0.4791864E-06
 -0.5050495E-02  0.0000000E+00 -0.5050505E-02 -0.4919906E-08  0.0000000E+00  0.4772630E-06
 -0.5050482E-02  0.0000000E+00 -0.5050505E-02 -0.5344760E-08  0.0000000E+00  0.4751615E-06
 -0.5050449E-02  0.0000000E+00 -0.5050505E-02 -0.5747583E-08  0.0000000E+00  0.4728905E-06
 -0.5050376E-02  0.0000000E+00 -0.5050505E-02 -0.6126715E-08  0.0000000E+00  0.4704594E-06
 -0.5050299E-02  0.0000000E+00 -0.5050505E-02 -0.6480616E-08  0.0000000E+00  0.4678783E-06
 -0.5050178E-02  0.0000000E+00 -0.5050505E-02 -0.6807868E-08  0.0000000E+00  0.4651578E-06
 -0.5050018E-02  0.0000000E+00 -0.5050505E-02 -0.7107185E-08  0.0000000E+00  0.4623090E-06
 -0.5049710E-02  0.0000000E+00 -0.5050505E-02 -0.7377412E-08  0.0000000E+00  0.4593437E-06
 -0.5049253E-02  0.0000000E+00 -0.5050505E-02 -0.7617530E-08  0.0000000E+00  0.4562741E-06
 -0.5048636E-02  0.0000000E+00 -0.5050505E-02 -0.7826658E-08  0.0000000E+00  0.4531125E-06
 -0.5047442E-02  0.0000000E+00 -0.5050505E-02 -0.8004054E-08  0.0000000E+00  0.4498719E-06
 -0.5045727E-02  0.0000000E+00 -0.5050505E-02 -0.8149116E-08  0.0000000E+00  0.4465654E-06
 -0.5043261E-02  0.0000000E+00 -0.5050505E-02 -0.8261377E-08  0.0000000E+00  0.4432064E-06
 -0.5038714E-02  0.0000000E+00 -0.5050505E-02 -0.8340508E-08  0.0000000E+00  0.4398082E-06
 -0.5032318E-02  0.0000000E+00 -0.5050505E-02 -0.8386312E-08  0.0000000E+00  0.4363846E-06
 -0.5022454E-02  0.0000000E+00 -0.5050505E-02 -0.8398719E-08  0.0000000E+00  0.4329491E-06
 -0.5012589E-02  0.0000000E+00 -0.5050505E-02 -0.8377780E-08  0.0000000E+00  0.4295155E-06
 -0.5002725E-02  0.0000000E+00 -0.5050505E-02 -0.8323662E-08  0.0000000E+00  0.4260973E-06
 -0.4992860E-02  0.0000000E+00 -0.5050505E-02 -0.8236637E-08  0.0000000E+00  0.4227080E-06
 -0.4976523E-02  0.0000000E+00 -0.5050505E-02 -0.8117069E-08  0.0000000E+00  0.4193610E-06
 -0.4956794E-02  0.0000000E+00 -0.5050505E-02 -0.7965403E-08  0.0000000E+00  0.4160694E-06
 -0.4937066E-02  0.0000000E+00 -0.5050505E-02 -0.7782140E-08  0.0000000E+00  0.4128463E-06
 -0.4906239E-02  0.0000000E+00 -0.5050505E-02 -0.7567816E-08  0.0000000E+00  0.4097043E-06
 -0.4866782E-02  0.0000000E+00 -0.5050505E-02 -0.7322963E-08  0.0000000E+00  0.4066559E-06
 -0.4827325E-02  0.0000000E+00 -0.5050505E-02 -0.7048061E-08  0.0000000E+00  0.4037134E-06
 -0.4769372E-02  0.0000000E+00 -0.5050505E-02 -0.6743466E-08  0.0000000E+00  0.4008886E-06
 -0.4690458E-02  0.0000000E+00 -0.5050505E-02 -0.6409297E-08  0.0000000E+00  0.3981934E-06
 -0.4611543E-02  0.0000000E+00 -0.5050505E-02 -0.6045276E-08  0.0000000E+00  0.3956393E-06
 -0.4503035E-02  0.0000000E+00 -0.5050505E-02 -0.5650457E-08  0.0000000E+00  0.3932377E-06
 -0.4345206E-02  0.0000000E+00 -0.5050505E-02 -0.5222796E-08  0.0000000E+00  0.3910001E-06
 -0.4187378E-02  0.0000000E+00 -0.5050505E-02 -0.4758423E-08  0.0000000E+00  0.3889380E-06
 -0.3985156E-02  0.0000000E+00 -0.5050505E-02 -0.4250392E-08  0.0000000E+00  0.3870632E-06
 -0.3669499E-02  0.0000000E+00 -0.5050505E-02 -0.3686455E-08  0.0000000E+00  0.3853870E-06
 -0.3353842E-02  0.0000000E+00 -0.5050505E-02 -0.3045052E-08  0.0000000E+00  0.3839194E-06
 -0.2978990E-02  0.0000000E+00 -0.5050505E-02 -0.2287992E-08  0.0000000E+00  0.3826644E-06
 -0.2347676E-02  0.0000000E+00 -0.5050505E-02 -0.1347355E-08  0.0000000E+00  0.3816065E-06
 -0.1716362E-02  0.0000000E+00 -0.5050505E-02 -0.1038867E-09  0.0000000E+00  0.3806732E-06
 -0.1025842E-02  0.0000000E+00 -0.5050505E-02  0.1638069E-08  0.0000000E+00  0.3796356E-06
  0.2367855E-03  0.0000000E+00 -0.5050505E-02  0.4124305E-08  0.0000000E+00  0.3778741E-06
  0.1499413E-02  0.0000000E+00 -0.5050505E-02  0.7265592E-08  0.0000000E+00  0.3740162E-06
  0.5287294E-02  0.0000000E+00 -0.5050505E-02  0.8415578E-08  0.0000000E+00  0.3666751E-06
 -0.5050505E-02  0.0000000E+00 -0.5050505E-02  0.3482469E-09  0.0000000E+00  0.3886909E-06
 -0.5050505E-02  0.0000000E+00 -0.5050505E-02  0.1043577E-08  0.0000000E+00  0.3888973E-06
 -0.5050505E-02  0.0000000E+00 -0.5050505E-02  0.1735080E-08  0.0000000E+00  0.3893096E-06
 -0.5050505E-02  0.0000000E+00 -0.5050505E-02  0.2419981E-08  0.0000000E+00  0.3899260E-06
 -0.5050505E-02  0.0000000E+00 -0.5050505E-02  0.3095698E-08  0.0000000E+00  0.3907442E-06
 -0.5050505E-02  0.0000000E+00 -0.5050505E-02  0.3759661E-08  0.0000000E+00  0.3917612E-06
 -0.5050504E-02  0.0000000E+00 -0.5050505E-02  0.4409334E-08  0.0000000E+00  0.3929732E-06
 -0.5050501E-02  0.0000000E+00 -0.5050505E-02  0.5042216E-08  0.0000000E+00  0.3943754E-06
 -0.5050495E-02  0.0000000E+00 -0.5050505E-02  0.5655848E-08  0.0000000E+00  0.3959627E-06
 -0.5050482E-02  0.0000000E+00 -0.5050505E-02  0.6247829E-08  0.0000000E+00  0.3977289E-06
 -0.5050449E-02  0.0000000E+00 -0.5050505E-02  0.6815814E-08  0.0000000E+00  0.3996673E-06
 -0.5050376E-02  0.0000000E+00 -0.5050505E-02  0.7357530E-08  0.0000000E+00  0.4017705E-06
 -0.5050299E-02  0.0000000E+00 -0.5050505E-02  0.7870780E-08  0.0000000E+00  0.4040304E-06
 -0.5050178E-02  0.0000000E+00 -0.5050505E-02  0.8353455E-08  0.0000000E+00  0.4064382E-06
 -0.5050018E-02  0.0000000E+00 -0.5050505E-02  0.8803538E-08  0.0000000E+00  0.4089847E-06
 -0.5049710E-02  0.0000000E+00 -0.5050505E-02  0.9219116E-08  0.0000000E+00  0.4116598E-06
 -0.5049253E-02  0.0000000E+00 -0.5050505E-02  0.9598384E-08  0.0000000E+00  0.4144531E-06
 -0.5048636E-02  0.0000000E+00 -0.5050505E-02  0.9939660E-08  0.0000000E+00  0.4173535E-06
 -0.5047442E-02  0.0000000E+00 -0.5050505E-02  0.1024139E-07  0.0000000E+00  0.4203497E-06
 -0.5045727E-02  0.0000000E+00 -0.5050505E-02  0.1050215E-07  0.0000000E+00  0.4234296E-06
 -0.5043261E-02  0.0000000E+00 -0.5050505E-02  0.1072066E-07  0.0000000E+00  0.4265810E-06
 -0.5038714E-02  0.0000000E+00 -0.5050505E-02  0.1089581E-07  0.0000000E+00  0.4297911E-06
 -0.5032318E-02  0.0000000E+00 -0.5050505E-02  0.1102663E-07  0.0000000E+00  0.4330469E-06
 -0.5022454E-02  0.0000000E+00 -0.5050505E-02  0.1111233E-07  0.0000000E+00  0.4363352E-06
 -0.5012589E-02  0.0000000E+00 -0.5050505E-02  0.1115229E-07  0.0000000E+00  0.4396424E-06
 -0.5002725E-02  0.0000000E+00 -0.5050505E-02  0.1114607E-07  0.0000000E+00  0.4429550E-06
 -0.4992860E-02  0.0000000E+00 -0.5050505E-02  0.1109341E-07  0.0000000E+00  0.4462591E-06
 -0.4976523E-02  0.0000000E+00 -0.5050505E-02  0.1099426E-07  0.0000000E+00  0.4495410E-06
 -0.4956794E-02  0.0000000E+00 -0.5050505E-02  0.1084876E-07  0.0000000E+00  0.4527869E-06
 -0.4937066E-02  0.0000000E+00 -0.5050505E-02  0.1065723E-07  0.0000000E+00  0.4559830E-06