title = "dataset feddes"
variables = "x", "y", "z", "vx", "vy", "vz"
zone t = "velocities, solution time =  4.200E+01 days        " i =   99, j =   99, k =    1,  f=point
 -0.5050505E-02  0.0000000E+00 -0.5050505E-02  0.1645914E-10  0.0000000E+00  0.1555798E-06
 -0.5050505E-02  0.0000000E+00 -0.5050505E-02  0.4979593E-10  0.0000000E+00  0.1556464E-06
 -0.5050505E-02  0.0000000E+00 -0.5050505E-02  0.8302245E-10  0.0000000E+00  0.1557800E-06
 -0.5050505E-02  0.0000000E+00 -0.5050505E-02  0.1158663E-09  0.0000000E+00  0.1559800E-06
 -0.5050505E-02  0.0000000E+00 -0.5050505E-02  0.1482344E-09  0.0000000E+00  0.1562456E-06
 -0.5050505E-02  0.0000000E+00 -0.5050505E-02  0.1800522E-09  0.0000000E+00  0.1565757E-06
 -0.5050504E-02  0.0000000E+00 -0.5050505E-02  0.2111658E-09  0.0000000E+00  0.1569692E-06
 -0.5050501E-02  0.0000000E+00 -0.5050505E-02  0.2414555E-09  0.0000000E+00  0.1574243E-06
 -0.5050495E-02  0.0000000E+00 -0.5050505E-02  0.2708252E-09  0.0000000E+00  0.1579395E-06
 -0.5050482E-02  0.0000000E+00 -0.5050505E-02  0.2991508E-09  0.0000000E+00  0.1585127E-06
 -0.5050449E-02  0.0000000E+00 -0.5050505E-02  0.3263134E-09  0.0000000E+00  0.1591417E-06
 -0.5050376E-02  0.0000000E+00 -0.5050505E-02  0.3522072E-09  0.0000000E+00  0.1598241E-06
 -0.5050299E-02  0.0000000E+00 -0.5050505E-02  0.3767307E-09  0.0000000E+00  0.1605572E-06
 -0.5050178E-02  0.0000000E+00 -0.5050505E-02  0.3997828E-09  0.0000000E+00  0.1613381E-06
 -0.5050018E-02  0.0000000E+00 -0.5050505E-02  0.4212668E-09  0.0000000E+00  0.1621638E-06
 -0.5049710E-02  0.0000000E+00 -0.5050505E-02  0.4410917E-09  0.0000000E+00  0.1630310E-06
 -0.5049253E-02  0.0000000E+00 -0.5050505E-02  0.4591732E-09  0.0000000E+00  0.1639364E-06
 -0.5048636E-02  0.0000000E+00 -0.5050505E-02  0.4754323E-09  0.0000000E+00  0.1648763E-06
 -0.5047442E-02  0.0000000E+00 -0.5050505E-02  0.4897959E-09  0.0000000E+00  0.1658470E-06
 -0.5045727E-02  0.0000000E+00 -0.5050505E-02  0.5021974E-09  0.0000000E+00  0.1668446E-06
 -0.5043261E-02  0.0000000E+00 -0.5050505E-02  0.5125771E-09  0.0000000E+00  0.1678651E-06
 -0.5038714E-02  0.0000000E+00 -0.5050505E-02  0.5208826E-09  0.0000000E+00  0.1689045E-06
 -0.5032318E-02  0.0000000E+00 -0.5050505E-02  0.5270695E-09  0.0000000E+00  0.1699583E-06
 -0.5022454E-02  0.0000000E+00 -0.5050505E-02  0.5311013E-09  0.0000000E+00  0.1710225E-06
 -0.5012589E-02  0.0000000E+00 -0.5050505E-02  0.5329500E-09  0.0000000E+00  0.1720926E-06
 -0.5002725E-02  0.0000000E+00 -0.5050505E-02  0.5325965E-09  0.0000000E+00  0.1731642E-06
 -0.4992860E-02  0.0000000E+00 -0.5050505E-02  0.5300307E-09  0.0000000E+00  0.1742328E-06
 -0.4976523E-02  0.0000000E+00 -0.5050505E-02  0.5252518E-09  0.0000000E+00  0.1752941E-06
 -0.4956794E-02  0.0000000E+00 -0.5050505E-02  0.5182684E-09  0.0000000E+00  0.1763435E-06
 -0.4937066E-02  0.0000000E+00 -0.5050505E-02  0.5090988E-09  0.0000000E+00  0.1773767E-06
 -0.4906239E-02  0.0000000E+00 -0.5050505E-02  0.4977706E-09  0.0000000E+00  0.1783893E-06
 -0.4866782E-02  0.0000000E+00 -0.5050505E-02  0.4843212E-09  0.0000000E+00  0.1793769E-06
 -0.4827325E-02  0.0000000E+00 -0.5050505E-02  0.4687972E-09  0.0000000E+00  0.1803355E-06
 -0.4769372E-02  0.0000000E+00 -0.5050505E-02  0.4512546E-09  0.0000000E+00  0.1812607E-06
 -0.4690458E-02  0.0000000E+00 -0.5050505E-02  0.4317586E-09  0.0000000E+00  0.1821487E-06
 -0.4611543E-02  0.0000000E+00 -0.5050505E-02  0.4103837E-09  0.0000000E+00  0.1829957E-06
 -0.4503035E-02  0.0000000E+00 -0.5050505E-02  0.3872126E-09  0.0000000E+00  0.1837978E-06
 -0.4345206E-02  0.0000000E+00 -0.5050505E-02  0.3623373E-09  0.0000000E+00  0.1845516E-06
 -0.4187378E-02  0.0000000E+00 -0.5050505E-02  0.3358574E-09  0.0000000E+00  0.1852537E-06
 -0.3985156E-02  0.0000000E+00 -0.5050505E-02  0.3078809E-09  0.0000000E+00  0.1859011E-06
 -0.3669499E-02  0.0000000E+00 -0.5050505E-02  0.2785230E-09  0.0000000E+00  0.1864908E-06
 -0.3353842E-02  0.0000000E+00 -0.5050505E-02  0.2479062E-09  0.0000000E+00  0.1870203E-06
 -0.2978990E-02  0.0000000E+00 -0.5050505E-02  0.2161592E-09  0.0000000E+00  0.1874869E-06
 -0.2347676E-02  0.0000000E+00 -0.5050505E-02  0.1834167E-09  0.0000000E+00  0.1878888E-06
 -0.1716362E-02  0.0000000E+00 -0.5050505E-02  0.1498185E-09  0.0000000E+00  0.1882239E-06
 -0.1025842E-02  0.0000000E+00 -0.5050505E-02  0.1155089E-09  0.0000000E+00  0.1884907E-06
  0.2367855E-03  0.0000000E+00 -0.5050505E-02  0.8063584E-10  0.0000000E+00  0.1886880E-06
  0.1499413E-02  0.0000000E+00 -0.5050505E-02  0.4535114E-10  0.0000000E+00  0.1888147E-06
  0.2762042E-02  0.0000000E+00 -0.5050505E-02  0.9808070E-11  0.0000000E+00  0.1888702E-06
 -0.5050505E-02  0.0000000E+00 -0.5050505E-02 -0.2583048E-10  0.0000000E+00  0.1888541E-06
 -0.5050505E-02  0.0000000E+00 -0.5050505E-02 -0.6140791E-10  0.0000000E+00  0.1887663E-06
 -0.5050505E-02  0.0000000E+00 -0.5050505E-02 -0.9681488E-10  0.0000000E+00  0.1886072E-06
 -0.5050505E-02  0.0000000E+00 -0.5050505E-02 -0.1318612E-09  0.0000000E+00  0.1883772E-06
 -0.5050505E-02  0.0000000E+00 -0.5050505E-02 -0.1663744E-09  0.0000000E+00  0.1880773E-06
 -0.5050505E-02  0.0000000E+00 -0.5050505E-02 -0.2002589E-09  0.0000000E+00  0.1877086E-06
 -0.5050505E-02  0.0000000E+00 -0.5050505E-02 -0.2333281E-09  0.0000000E+00  0.1872726E-06
 -0.5050504E-02  0.0000000E+00 -0.5050505E-02 -0.2654379E-09  0.0000000E+00  0.1867710E-06
 -0.5050501E-02  0.0000000E+00 -0.5050505E-02 -0.2964787E-09  0.0000000E+00  0.1862059E-06
 -0.5050495E-02  0.0000000E+00 -0.5050505E-02 -0.3263086E-09  0.0000000E+00  0.1855795E-06
 -0.5050482E-02  0.0000000E+00 -0.5050505E-02 -0.3547939E-09  0.0000000E+00  0.1848946E-06
 -0.5050449E-02  0.0000000E+00 -0.5050505E-02 -0.3818205E-09  0.0000000E+00  0.1841538E-06
 -0.5050376E-02  0.0000000E+00 -0.5050505E-02 -0.4072806E-09  0.0000000E+00  0.1833602E-06
 -0.5050299E-02  0.0000000E+00 -0.5050505E-02 -0.4310704E-09  0.0000000E+00  0.1825171E-06
 -0.5050178E-02  0.0000000E+00 -0.5050505E-02 -0.4530928E-09  0.0000000E+00  0.1816279E-06
 -0.5050018E-02  0.0000000E+00 -0.5050505E-02 -0.4732606E-09  0.0000000E+00  0.1806963E-06
 -0.5049710E-02  0.0000000E+00 -0.5050505E-02 -0.4914960E-09  0.0000000E+00  0.1797261E-06
 -0.5049253E-02  0.0000000E+00 -0.5050505E-02 -0.5077297E-09  0.0000000E+00  0.1787212E-06
 -0.5048636E-02  0.0000000E+00 -0.5050505E-02 -0.5219008E-09  0.0000000E+00  0.1776858E-06
 -0.5047442E-02  0.0000000E+00 -0.5050505E-02 -0.5339570E-09  0.0000000E+00  0.1766239E-06
 -0.5045727E-02  0.0000000E+00 -0.5050505E-02 -0.5438550E-09  0.0000000E+00  0.1755400E-06
 -0.5043261E-02  0.0000000E+00 -0.5050505E-02 -0.5515604E-09  0.0000000E+00  0.1744384E-06
 -0.5038714E-02  0.0000000E+00 -0.5050505E-02 -0.5570478E-09  0.0000000E+00  0.1733235E-06
 -0.5032318E-02  0.0000000E+00 -0.5050505E-02 -0.5603000E-09  0.0000000E+00  0.1721998E-06
 -0.5022454E-02  0.0000000E+00 -0.5050505E-02 -0.5613088E-09  0.0000000E+00  0.1710718E-06
 -0.5012589E-02  0.0000000E+00 -0.5050505E-02 -0.5600735E-09  0.0000000E+00  0.1699441E-06
 -0.5002725E-02  0.0000000E+00 -0.5050505E-02 -0.5566012E-09  0.0000000E+00  0.1688211E-06
 -0.4992860E-02  0.0000000E+00 -0.5050505E-02 -0.5509054E-09  0.0000000E+00  0.1677073E-06
 -0.4976523E-02  0.0000000E+00 -0.5050505E-02 -0.5430059E-09  0.0000000E+00  0.1666072E-06
 -0.4956794E-02  0.0000000E+00 -0.5050505E-02 -0.5329266E-09  0.0000000E+00  0.1655252E-06
 -0.4937066E-02  0.0000000E+00 -0.5050505E-02 -0.5206945E-09  0.0000000E+00  0.1644656E-06
 -0.4906239E-02  0.0000000E+00 -0.5050505E-02 -0.5063367E-09  0.0000000E+00  0.1634327E-06
 -0.4866782E-02  0.0000000E+00 -0.5050505E-02 -0.4898776E-09  0.0000000E+00  0.1624309E-06
 -0.4827325E-02  0.0000000E+00 -0.5050505E-02 -0.4713335E-09  0.0000000E+00  0.1614642E-06
 -0.4769372E-02  0.0000000E+00 -0.5050505E-02 -0.4507055E-09  0.0000000E+00  0.1605370E-06
 -0.4690458E-02  0.0000000E+00 -0.5050505E-02 -0.4279682E-09  0.0000000E+00  0.1596533E-06
 -0.4611543E-02  0.0000000E+00 -0.5050505E-02 -0.4030510E-09  0.0000000E+00  0.1588176E-06
 -0.4503035E-02  0.0000000E+00 -0.5050505E-02 -0.3758076E-09  0.0000000E+00  0.1580343E-06
 -0.4345206E-02  0.0000000E+00 -0.5050505E-02 -0.3459622E-09  0.0000000E+00  0.1573084E-06
 -0.4187378E-02  0.0000000E+00 -0.5050505E-02 -0.3130128E-09  0.0000000E+00  0.1566457E-06
 -0.3985156E-02  0.0000000E+00 -0.5050505E-02 -0.2760452E-09  0.0000000E+00  0.1560533E-06
 -0.3669499E-02  0.0000000E+00 -0.5050505E-02 -0.2333584E-09  0.0000000E+00  0.1555410E-06
 -0.3353842E-02  0.0000000E+00 -0.5050505E-02 -0.1816563E-09  0.0000000E+00  0.1551237E-06
 -0.2978990E-02  0.0000000E+00 -0.5050505E-02 -0.1141710E-09  0.0000000E+00  0.1548262E-06
 -0.2347676E-02  0.0000000E+00 -0.5050505E-02 -0.1592375E-10  0.0000000E+00  0.1546953E-06
 -0.1716362E-02  0.0000000E+00 -0.5050505E-02  0.1493445E-09  0.0000000E+00  0.1548295E-06
 -0.1025842E-02  0.0000000E+00 -0.5050505E-02  0.4789233E-09  0.0000000E+00  0.1554614E-06
  0.2367855E-03  0.0000000E+00 -0.5050505E-02  0.1262868E-08  0.0000000E+00  0.1572130E-06
  0.1499413E-02  0.0000000E+00 -0.5050505E-02  0.3459504E-08  0.0000000E+00  0.1619621E-06
  0.5287294E-02  0.0000000E+00 -0.5050505E-02  0.5717854E-07  0.0000000E+00  0.1294030E-06
 -0.5050505E-02  0.0000000E+00 -0.5050505E-02  0.4951119E-10  0.0000000E+00  0.1558098E-06
 -0.5050505E-02  0.0000000E+00 -0.5050505E-02  0.1494779E-09  0.0000000E+00  0.1558771E-06
 -0.5050505E-02  0.0000000E+00 -0.5050505E-02  0.2491257E-09  0.0000000E+00  0.1560115E-06
 -0.5050505E-02  0.0000000E+00 -0.5050505E-02  0.3476701E-09  0.0000000E+00  0.1562128E-06
 -0.5050505E-02  0.0000000E+00 -0.5050505E-02  0.4447940E-09  0.0000000E+00  0.1564800E-06
 -0.5050505E-02  0.0000000E+00 -0.5050505E-02  0.5402486E-09  0.0000000E+00  0.1568122E-06
 -0.5050504E-02  0.0000000E+00 -0.5050505E-02  0.6336079E-09  0.0000000E+00  0.1572081E-06
 -0.5050501E-02  0.0000000E+00 -0.5050505E-02  0.7245028E-09  0.0000000E+00  0.1576661E-06
 -0.5050495E-02  0.0000000E+00 -0.5050505E-02  0.8126277E-09  0.0000000E+00  0.1581844E-06
 -0.5050482E-02  0.0000000E+00 -0.5050505E-02  0.8976197E-09  0.0000000E+00  0.1587612E-06
 -0.5050449E-02  0.0000000E+00 -0.5050505E-02  0.9791264E-09  0.0000000E+00  0.1593941E-06
 -0.5050376E-02  0.0000000E+00 -0.5050505E-02  0.1056829E-08  0.0000000E+00  0.1600806E-06
 -0.5050299E-02  0.0000000E+00 -0.5050505E-02  0.1130419E-08  0.0000000E+00  0.1608183E-06
 -0.5050178E-02  0.0000000E+00 -0.5050505E-02  0.1199594E-08  0.0000000E+00  0.1616040E-06
 -0.5050018E-02  0.0000000E+00 -0.5050505E-02  0.1264066E-08  0.0000000E+00  0.1624349E-06
 -0.5049710E-02  0.0000000E+00 -0.5050505E-02  0.1323560E-08  0.0000000E+00  0.1633075E-06
 -0.5049253E-02  0.0000000E+00 -0.5050505E-02  0.1377825E-08  0.0000000E+00  0.1642186E-06
 -0.5048636E-02  0.0000000E+00 -0.5050505E-02  0.1426621E-08  0.0000000E+00  0.1651644E-06
 -0.5047442E-02  0.0000000E+00 -0.5050505E-02  0.1469731E-08  0.0000000E+00  0.1661412E-06
 -0.5045727E-02  0.0000000E+00 -0.5050505E-02  0.1506954E-08  0.0000000E+00  0.1671451E-06
 -0.5043261E-02  0.0000000E+00 -0.5050505E-02  0.1538111E-08  0.0000000E+00  0.1681721E-06
 -0.5038714E-02  0.0000000E+00 -0.5050505E-02  0.1563044E-08  0.0000000E+00  0.1692180E-06
 -0.5032318E-02  0.0000000E+00 -0.5050505E-02  0.1581621E-08  0.0000000E+00  0.1702786E-06
 -0.5022454E-02  0.0000000E+00 -0.5050505E-02  0.1593730E-08  0.0000000E+00  0.1713496E-06
 -0.5012589E-02  0.0000000E+00 -0.5050505E-02  0.1599289E-08  0.0000000E+00  0.1724266E-06
 -0.5002725E-02  0.0000000E+00 -0.5050505E-02  0.1598240E-08  0.0000000E+00  0.1735051E-06
 -0.4992860E-02  0.0000000E+00 -0.5050505E-02  0.1590551E-08  0.0000000E+00  0.1745806E-06
 -0.4976523E-02  0.0000000E+00 -0.5050505E-02  0.1576222E-08  0.0000000E+00  0.1756488E-06
 -0.4956794E-02  0.0000000E+00 -0.5050505E-02  0.1555277E-08  0.0000000E+00  0.1767050E-06
 -0.4937066E-02  0.0000000E+00 -0.5050505E-02  0.1527771E-08  0.0000000E+00  0.1777450E-06
 -0.4906239E-02  0.0000000E+00 -0.5050505E-02  0.1493787E-08  0.0000000E+00  0.1787642E-06
 -0.4866782E-02  0.0000000E+00 -0.5050505E-02  0.1453437E-08  0.0000000E+00  0.1797583E-06
 -0.4827325E-02  0.0000000E+00 -0.5050505E-02  0.1406860E-08  0.0000000E+00  0.1807232E-06
 -0.4769372E-02  0.0000000E+00 -0.5050505E-02  0.1354225E-08  0.0000000E+00  0.1816545E-06
 -0.4690458E-02  0.0000000E+00 -0.5050505E-02  0.1295727E-08  0.0000000E+00  0.1825485E-06
 -0.4611543E-02  0.0000000E+00 -0.5050505E-02  0.1231590E-08  0.0000000E+00  0.1834010E-06
 -0.4503035E-02  0.0000000E+00 -0.5050505E-02  0.1162061E-08  0.0000000E+00  0.1842085E-06
 -0.4345206E-02  0.0000000E+00 -0.5050505E-02  0.1087417E-08  0.0000000E+00  0.1849674E-06
 -0.4187378E-02  0.0000000E+00 -0.5050505E-02  0.1007956E-08  0.0000000E+00  0.1856742E-06
 -0.3985156E-02  0.0000000E+00 -0.5050505E-02  0.9240029E-09  0.0000000E+00  0.1863260E-06
 -0.3669499E-02  0.0000000E+00 -0.5050505E-02  0.8359034E-09  0.0000000E+00  0.1869197E-06
 -0.3353842E-02  0.0000000E+00 -0.5050505E-02  0.7440248E-09  0.0000000E+00  0.1874528E-06
 -0.2978990E-02  0.0000000E+00 -0.5050505E-02  0.6487537E-09  0.0000000E+00  0.1879227E-06
 -0.2347676E-02  0.0000000E+00 -0.5050505E-02  0.5504943E-09  0.0000000E+00  0.1883273E-06
 -0.1716362E-02  0.0000000E+00 -0.5050505E-02  0.4496662E-09  0.0000000E+00  0.1886647E-06
 -0.1025842E-02  0.0000000E+00 -0.5050505E-02  0.3467021E-09  0.0000000E+00  0.1889335E-06
  0.2367855E-03  0.0000000E+00 -0.5050505E-02  0.2420464E-09  0.0000000E+00  0.1891321E-06
  0.1499413E-02  0.0000000E+00 -0.5050505E-02  0.1361557E-09  0.0000000E+00  0.1892598E-06
  0.2762042E-02  0.0000000E+00 -0.5050505E-02  0.2949788E-10  0.0000000E+00  0.1893158E-06
 -0.5050505E-02  0.0000000E+00 -0.5050505E-02 -0.7746384E-10  0.0000000E+00  0.1892997E-06
 -0.5050505E-02  0.0000000E+00 -0.5050505E-02 -0.1842413E-09  0.0000000E+00  0.1892114E-06
 -0.5050505E-02  0.0000000E+00 -0.5050505E-02 -0.2904807E-09  0.0000000E+00  0.1890514E-06
 -0.5050505E-02  0.0000000E+00 -0.5050505E-02 -0.3956651E-09  0.0000000E+00  0.1888200E-06
 -0.5050505E-02  0.0000000E+00 -0.5050505E-02 -0.4992499E-09  0.0000000E+00  0.1885182E-06
 -0.5050505E-02  0.0000000E+00 -0.5050505E-02 -0.6009203E-09  0.0000000E+00  0.1881471E-06
 -0.5050505E-02  0.0000000E+00 -0.5050505E-02 -0.7001616E-09  0.0000000E+00  0.1877083E-06
 -0.5050504E-02  0.0000000E+00 -0.5050505E-02 -0.7965317E-09  0.0000000E+00  0.1872035E-06
 -0.5050501E-02  0.0000000E+00 -0.5050505E-02 -0.8896802E-09  0.0000000E+00  0.1866348E-06
 -0.5050495E-02  0.0000000E+00 -0.5050505E-02 -0.9791920E-09  0.0000000E+00  0.1860044E-06
 -0.5050482E-02  0.0000000E+00 -0.5050505E-02 -0.1064673E-08  0.0000000E+00  0.1853151E-06
 -0.5050449E-02  0.0000000E+00 -0.5050505E-02 -0.1145776E-08  0.0000000E+00  0.1845695E-06
 -0.5050376E-02  0.0000000E+00 -0.5050505E-02 -0.1222176E-08  0.0000000E+00  0.1837708E-06
 -0.5050299E-02  0.0000000E+00 -0.5050505E-02 -0.1293562E-08  0.0000000E+00  0.1829223E-06
 -0.5050178E-02  0.0000000E+00 -0.5050505E-02 -0.1359643E-08  0.0000000E+00  0.1820274E-06
 -0.5050018E-02  0.0000000E+00 -0.5050505E-02 -0.1420159E-08  0.0000000E+00  0.1810899E-06
 -0.5049710E-02  0.0000000E+00 -0.5050505E-02 -0.1474875E-08  0.0000000E+00  0.1801134E-06
 -0.5049253E-02  0.0000000E+00 -0.5050505E-02 -0.1523583E-08  0.0000000E+00  0.1791021E-06
 -0.5048636E-02  0.0000000E+00 -0.5050505E-02 -0.1566101E-08  0.0000000E+00  0.1780601E-06
 -0.5047442E-02  0.0000000E+00 -0.5050505E-02 -0.1602273E-08  0.0000000E+00  0.1769915E-06
 -0.5045727E-02  0.0000000E+00 -0.5050505E-02 -0.1631968E-08  0.0000000E+00  0.1759006E-06
 -0.5043261E-02  0.0000000E+00 -0.5050505E-02 -0.1655083E-08  0.0000000E+00  0.1747920E-06
 -0.5038714E-02  0.0000000E+00 -0.5050505E-02 -0.1671543E-08  0.0000000E+00  0.1736701E-06
 -0.5032318E-02  0.0000000E+00 -0.5050505E-02 -0.1681297E-08  0.0000000E+00  0.1725393E-06
 -0.5022454E-02  0.0000000E+00 -0.5050505E-02 -0.1684320E-08  0.0000000E+00  0.1714042E-06
 -0.5012589E-02  0.0000000E+00 -0.5050505E-02 -0.1680610E-08  0.0000000E+00  0.1702694E-06
 -0.5002725E-02  0.0000000E+00 -0.5050505E-02 -0.1670190E-08  0.0000000E+00  0.1691393E-06
 -0.4992860E-02  0.0000000E+00 -0.5050505E-02 -0.1653102E-08  0.0000000E+00  0.1680185E-06
 -0.4976523E-02  0.0000000E+00 -0.5050505E-02 -0.1629405E-08  0.0000000E+00  0.1669114E-06
 -0.4956794E-02  0.0000000E+00 -0.5050505E-02 -0.1599174E-08  0.0000000E+00  0.1658225E-06
 -0.4937066E-02  0.0000000E+00 -0.5050505E-02 -0.1562491E-08  0.0000000E+00  0.1647562E-06
 -0.4906239E-02  0.0000000E+00 -0.5050505E-02 -0.1519441E-08  0.0000000E+00  0.1637167E-06
 -0.4866782E-02  0.0000000E+00 -0.5050505E-02 -0.1470101E-08  0.0000000E+00  0.1627083E-06
 -0.4827325E-02  0.0000000E+00 -0.5050505E-02 -0.1414529E-08  0.0000000E+00  0.1617353E-06
 -0.4769372E-02  0.0000000E+00 -0.5050505E-02 -0.1352739E-08  0.0000000E+00  0.1608016E-06
 -0.4690458E-02  0.0000000E+00 -0.5050505E-02 -0.1284672E-08  0.0000000E+00  0.1599116E-06
 -0.4611543E-02  0.0000000E+00 -0.5050505E-02 -0.1210148E-08  0.0000000E+00  0.1590694E-06
 -0.4503035E-02  0.0000000E+00 -0.5050505E-02 -0.1128783E-08  0.0000000E+00  0.1582794E-06
 -0.4345206E-02  0.0000000E+00 -0.5050505E-02 -0.1039845E-08  0.0000000E+00  0.1575461E-06
 -0.4187378E-02  0.0000000E+00 -0.5050505E-02 -0.9420163E-09  0.0000000E+00  0.1568748E-06
 -0.3985156E-02  0.0000000E+00 -0.5050505E-02 -0.8329294E-09  0.0000000E+00  0.1562712E-06
 -0.3669499E-02  0.0000000E+00 -0.5050505E-02 -0.7082916E-09  0.0000000E+00  0.1557430E-06
 -0.3353842E-02  0.0000000E+00 -0.5050505E-02 -0.5600937E-09  0.0000000E+00  0.1552998E-06
 -0.2978990E-02  0.0000000E+00 -0.5050505E-02 -0.3727701E-09  0.0000000E+00  0.1549550E-06
 -0.2347676E-02  0.0000000E+00 -0.5050505E-02 -0.1144660E-09  0.0000000E+00  0.1547259E-06
 -0.1716362E-02  0.0000000E+00 -0.5050505E-02  0.2840231E-09  0.0000000E+00  0.1546288E-06
 -0.1025842E-02  0.0000000E+00 -0.5050505E-02  0.9831536E-09  0.0000000E+00  0.1546431E-06
  0.2367855E-03  0.0000000E+00 -0.5050505E-02  0.2379145E-08  0.0000000E+00  0.1545310E-06
  0.1499413E-02  0.0000000E+00 -0.5050505E-02  0.5508896E-08  0.0000000E+00  0.1529921E-06
  0.5287294E-02  0.0000000E+00 -0.5050505E-02  0.1320969E-07  0.0000000E+00  0.1437376E-06
 -0.5050505E-02  0.0000000E+00 -0.5050505E-02  0.8284793E-10  0.0000000E+00  0.1562712E-06
 -0.5050505E-02  0.0000000E+00 -0.5050505E-02  0.2496342E-09  0.0000000E+00  0.1563394E-06
 -0.5050505E-02  0.0000000E+00 -0.5050505E-02  0.4158682E-09  0.0000000E+00  0.1564756E-06
 -0.5050505E-02  0.0000000E+00 -0.5050505E-02  0.5803261E-09  0.0000000E+00  0.1566793E-06
 -0.5050505E-02  0.0000000E+00 -0.5050505E-02  0.7424423E-09  0.0000000E+00  0.1569498E-06
 -0.5050505E-02  0.0000000E+00 -0.5050505E-02  0.9017483E-09  0.0000000E+00  0.1572861E-06
 -0.5050504E-02  0.0000000E+00 -0.5050505E-02  0.1057579E-08  0.0000000E+00  0.1576868E-06
 -0.5050501E-02  0.0000000E+00 -0.5050505E-02  0.1209312E-08  0.0000000E+00  0.1581504E-06
 -0.5050495E-02  0.0000000E+00 -0.5050505E-02  0.1356410E-08  0.0000000E+00  0.1586751E-06
 -0.5050482E-02  0.0000000E+00 -0.5050505E-02  0.1498280E-08  0.0000000E+00  0.1592589E-06
 -0.5050449E-02  0.0000000E+00 -0.5050505E-02  0.1634341E-08  0.0000000E+00  0.1598996E-06
 -0.5050376E-02  0.0000000E+00 -0.5050505E-02  0.1764057E-08  0.0000000E+00  0.1605946E-06
 -0.5050299E-02  0.0000000E+00 -0.5050505E-02  0.1886911E-08  0.0000000E+00  0.1613413E-06
 -0.5050178E-02  0.0000000E+00 -0.5050505E-02  0.2002398E-08  0.0000000E+00  0.1621368E-06
 -0.5050018E-02  0.0000000E+00 -0.5050505E-02  0.2110037E-08  0.0000000E+00  0.1629780E-06
 -0.5049710E-02  0.0000000E+00 -0.5050505E-02  0.2209373E-08  0.0000000E+00  0.1638615E-06
 -0.5049253E-02  0.0000000E+00 -0.5050505E-02  0.2299981E-08  0.0000000E+00  0.1647839E-06
 -0.5048636E-02  0.0000000E+00 -0.5050505E-02  0.2381466E-08  0.0000000E+00  0.1657415E-06
 -0.5047442E-02  0.0000000E+00 -0.5050505E-02  0.2453461E-08  0.0000000E+00  0.1667306E-06
 -0.5045727E-02  0.0000000E+00 -0.5050505E-02  0.2515630E-08  0.0000000E+00  0.1677471E-06
 -0.5043261E-02  0.0000000E+00 -0.5050505E-02  0.2567676E-08  0.0000000E+00  0.1687871E-06
 -0.5038714E-02  0.0000000E+00 -0.5050505E-02  0.2609334E-08  0.0000000E+00  0.1698462E-06
 -0.5032318E-02  0.0000000E+00 -0.5050505E-02  0.2640381E-08  0.0000000E+00  0.1709203E-06
 -0.5022454E-02  0.0000000E+00 -0.5050505E-02  0.2660635E-08  0.0000000E+00  0.1720049E-06
 -0.5012589E-02  0.0000000E+00 -0.5050505E-02  0.2669953E-08  0.0000000E+00  0.1730956E-06
 -0.5002725E-02  0.0000000E+00 -0.5050505E-02  0.2668239E-08  0.0000000E+00  0.1741880E-06
 -0.4992860E-02  0.0000000E+00 -0.5050505E-02  0.2655442E-08  0.0000000E+00  0.1752773E-06
 -0.4976523E-02  0.0000000E+00 -0.5050505E-02  0.2631557E-08  0.0000000E+00  0.1763593E-06
 -0.4956794E-02  0.0000000E+00 -0.5050505E-02  0.2596627E-08  0.0000000E+00  0.1774292E-06
 -0.4937066E-02  0.0000000E+00 -0.5050505E-02  0.2550742E-08  0.0000000E+00  0.1784827E-06
 -0.4906239E-02  0.0000000E+00 -0.5050505E-02  0.2494040E-08  0.0000000E+00  0.1795152E-06
 -0.4866782E-02  0.0000000E+00 -0.5050505E-02  0.2426707E-08  0.0000000E+00  0.1805223E-06
 -0.4827325E-02  0.0000000E+00 -0.5050505E-02  0.2348976E-08  0.0000000E+00  0.1814998E-06
 -0.4769372E-02  0.0000000E+00 -0.5050505E-02  0.2261128E-08  0.0000000E+00  0.1824435E-06
 -0.4690458E-02  0.0000000E+00 -0.5050505E-02  0.2163488E-08  0.0000000E+00  0.1833492E-06
 -0.4611543E-02  0.0000000E+00 -0.5050505E-02  0.2056428E-08  0.0000000E+00  0.1842131E-06
 -0.4503035E-02  0.0000000E+00 -0.5050505E-02  0.1940365E-08  0.0000000E+00  0.1850313E-06
 -0.4345206E-02  0.0000000E+00 -0.5050505E-02  0.1815756E-08  0.0000000E+00  0.1858003E-06
 -0.4187378E-02  0.0000000E+00 -0.5050505E-02  0.1683102E-08  0.0000000E+00  0.1865167E-06
 -0.3985156E-02  0.0000000E+00 -0.5050505E-02  0.1542944E-08  0.0000000E+00  0.1871772E-06
 -0.3669499E-02  0.0000000E+00 -0.5050505E-02  0.1395860E-08  0.0000000E+00  0.1877790E-06
 -0.3353842E-02  0.0000000E+00 -0.5050505E-02  0.1242462E-08  0.0000000E+00  0.1883192E-06
 -0.2978990E-02  0.0000000E+00 -0.5050505E-02  0.1083398E-08  0.0000000E+00  0.1887956E-06
 -0.2347676E-02  0.0000000E+00 -0.5050505E-02  0.9193407E-09  0.0000000E+00  0.1892057E-06
 -0.1716362E-02  0.0000000E+00 -0.5050505E-02  0.7509924E-09  0.0000000E+00  0.1895479E-06
 -0.1025842E-02  0.0000000E+00 -0.5050505E-02  0.5790756E-09  0.0000000E+00  0.1898204E-06
  0.2367855E-03  0.0000000E+00 -0.5050505E-02  0.4043323E-09  0.0000000E+00  0.1900219E-06
  0.1499413E-02  0.0000000E+00 -0.5050505E-02  0.2275223E-09  0.0000000E+00  0.1901515E-06
  0.2762042E-02  0.0000000E+00 -0.5050505E-02  0.4944996E-10  0.0000000E+00  0.1902084E-06
 -0.5050505E-02  0.0000000E+00 -0.5050505E-02 -0.1291493E-09  0.0000000E+00  0.1901923E-06
 -0.5050505E-02  0.0000000E+00 -0.5050505E-02 -0.3074611E-09  0.0000000E+00  0.1901032E-06
 -0.5050505E-02  0.0000000E+00 -0.5050505E-02 -0.4848246E-09  0.0000000E+00  0.1899412E-06
 -0.5050505E-02  0.0000000E+00 -0.5050505E-02 -0.6604510E-09  0.0000000E+00  0.1897070E-06
 -0.5050505E-02  0.0000000E+00 -0.5050505E-02 -0.8334239E-09  0.0000000E+00  0.1894014E-06
 -0.5050505E-02  0.0000000E+00 -0.5050505E-02 -0.1003158E-08  0.0000000E+00  0.1890257E-06
 -0.5050505E-02  0.0000000E+00 -0.5050505E-02 -0.1168854E-08  0.0000000E+00  0.1885813E-06
 -0.5050504E-02  0.0000000E+00 -0.5050505E-02 -0.1329768E-08  0.0000000E+00  0.1880700E-06
 -0.5050501E-02  0.0000000E+00 -0.5050505E-02 -0.1485283E-08  0.0000000E+00  0.1874940E-06
 -0.5050495E-02  0.0000000E+00 -0.5050505E-02 -0.1634720E-08  0.0000000E+00  0.1868556E-06
 -0.5050482E-02  0.0000000E+00 -0.5050505E-02 -0.1777430E-08  0.0000000E+00  0.1861575E-06
 -0.5050449E-02  0.0000000E+00 -0.5050505E-02 -0.1912831E-08  0.0000000E+00  0.1854024E-06
 -0.5050376E-02  0.0000000E+00 -0.5050505E-02 -0.2040373E-08  0.0000000E+00  0.1845935E-06
 -0.5050299E-02  0.0000000E+00 -0.5050505E-02 -0.2159539E-08  0.0000000E+00  0.1837341E-06
 -0.5050178E-02  0.0000000E+00 -0.5050505E-02 -0.2269846E-08  0.0000000E+00  0.1828278E-06
 -0.5050018E-02  0.0000000E+00 -0.5050505E-02 -0.2370859E-08  0.0000000E+00  0.1818782E-06
 -0.5049710E-02  0.0000000E+00 -0.5050505E-02 -0.2462188E-08  0.0000000E+00  0.1808894E-06
 -0.5049253E-02  0.0000000E+00 -0.5050505E-02 -0.2543484E-08  0.0000000E+00  0.1798652E-06
 -0.5048636E-02  0.0000000E+00 -0.5050505E-02 -0.2614444E-08  0.0000000E+00  0.1788099E-06
 -0.5047442E-02  0.0000000E+00 -0.5050505E-02 -0.2674807E-08  0.0000000E+00  0.1777278E-06
 -0.5045727E-02  0.0000000E+00 -0.5050505E-02 -0.2724357E-08  0.0000000E+00  0.1766232E-06
 -0.5043261E-02  0.0000000E+00 -0.5050505E-02 -0.2762924E-08  0.0000000E+00  0.1755006E-06
 -0.5038714E-02  0.0000000E+00 -0.5050505E-02 -0.2790380E-08  0.0000000E+00  0.1743645E-06
 -0.5032318E-02  0.0000000E+00 -0.5050505E-02 -0.2806644E-08  0.0000000E+00  0.1732195E-06
 -0.5022454E-02  0.0000000E+00 -0.5050505E-02 -0.2811675E-08  0.0000000E+00  0.1720701E-06
 -0.5012589E-02  0.0000000E+00 -0.5050505E-02 -0.2805474E-08  0.0000000E+00  0.1709210E-06
 -0.5002725E-02  0.0000000E+00 -0.5050505E-02 -0.2788078E-08  0.0000000E+00  0.1697768E-06
 -0.4992860E-02  0.0000000E+00 -0.5050505E-02 -0.2759561E-08  0.0000000E+00  0.1686419E-06
 -0.4976523E-02  0.0000000E+00 -0.5050505E-02 -0.2720026E-08  0.0000000E+00  0.1675210E-06
 -0.4956794E-02  0.0000000E+00 -0.5050505E-02 -0.2669603E-08  0.0000000E+00  0.1664184E-06
 -0.4937066E-02  0.0000000E+00 -0.5050505E-02 -0.2608437E-08  0.0000000E+00  0.1653385E-06
 -0.4906239E-02  0.0000000E+00 -0.5050505E-02 -0.2536678E-08  0.0000000E+00  0.1642858E-06
 -0.4866782E-02  0.0000000E+00 -0.5050505E-02 -0.2454473E-08  0.0000000E+00  0.1632644E-06
 -0.4827325E-02  0.0000000E+00 -0.5050505E-02 -0.2361936E-08  0.0000000E+00  0.1622785E-06
 -0.4769372E-02  0.0000000E+00 -0.5050505E-02 -0.2259128E-08  0.0000000E+00  0.1613322E-06
 -0.4690458E-02  0.0000000E+00 -0.5050505E-02 -0.2146009E-08  0.0000000E+00  0.1604296E-06
 -0.4611543E-02  0.0000000E+00 -0.5050505E-02 -0.2022367E-08  0.0000000E+00  0.1595747E-06
 -0.4503035E-02  0.0000000E+00 -0.5050505E-02 -0.1887720E-08  0.0000000E+00  0.1587715E-06
 -0.4345206E-02  0.0000000E+00 -0.5050505E-02 -0.1741131E-08  0.0000000E+00  0.1580241E-06
 -0.4187378E-02  0.0000000E+00 -0.5050505E-02 -0.1580916E-08  0.0000000E+00  0.1573365E-06
 -0.3985156E-02  0.0000000E+00 -0.5050505E-02 -0.1404137E-08  0.0000000E+00  0.1567131E-06
 -0.3669499E-02  0.0000000E+00 -0.5050505E-02 -0.1205696E-08  0.0000000E+00  0.1561580E-06
 -0.3353842E-02  0.0000000E+00 -0.5050505E-02 -0.9767016E-09  0.0000000E+00  0.1556748E-06
 -0.2978990E-02  0.0000000E+00 -0.5050505E-02 -0.7014978E-09  0.0000000E+00  0.1552648E-06
 -0.2347676E-02  0.0000000E+00 -0.5050505E-02 -0.3523637E-09  0.0000000E+00  0.1549213E-06
 -0.1716362E-02  0.0000000E+00 -0.5050505E-02  0.1193621E-09  0.0000000E+00  0.1546145E-06
 -0.1025842E-02  0.0000000E+00 -0.5050505E-02  0.7933289E-09  0.0000000E+00  0.1542509E-06
  0.2367855E-03  0.0000000E+00 -0.5050505E-02  0.1769640E-08  0.0000000E+00  0.1535782E-06
  0.1499413E-02  0.0000000E+00 -0.5050505E-02  0.3011913E-08  0.0000000E+00  0.1520375E-06
  0.5287294E-02  0.0000000E+00 -0.5050505E-02  0.3442890E-08  0.0000000E+00  0.1490646E-06
 -0.5050505E-02  0.0000000E+00 -0.5050505E-02  0.1165635E-09  0.0000000E+00  0.1569648E-06
 -0.5050505E-02  0.0000000E+00 -0.5050505E-02  0.3508352E-09  0.0000000E+00  0.1570343E-06
 -0.5050505E-02  0.0000000E+00 -0.5050505E-02  0.5842759E-09  0.0000000E+00  0.1571729E-06
 -0.5050505E-02  0.0000000E+00 -0.5050505E-02  0.8152621E-09  0.0000000E+00  0.1573804E-06
 -0.5050505E-02  0.0000000E+00 -0.5050505E-02  0.1043001E-08  0.0000000E+00  0.1576559E-06
 -0.5050505E-02  0.0000000E+00 -0.5050505E-02  0.1266783E-08  0.0000000E+00  0.1579982E-06
 -0.5050504E-02  0.0000000E+00 -0.5050505E-02  0.1485696E-08  0.0000000E+00  0.1584062E-06
 -0.5050501E-02  0.0000000E+00 -0.5050505E-02  0.1698868E-08  0.0000000E+00  0.1588782E-06
 -0.5050495E-02  0.0000000E+00 -0.5050505E-02  0.1905528E-08  0.0000000E+00  0.1594125E-06
 -0.5050482E-02  0.0000000E+00 -0.5050505E-02  0.2104848E-08  0.0000000E+00  0.1600070E-06
 -0.5050449E-02  0.0000000E+00 -0.5050505E-02  0.2296019E-08  0.0000000E+00  0.1606593E-06
 -0.5050376E-02  0.0000000E+00 -0.5050505E-02  0.2478284E-08  0.0000000E+00  0.1613671E-06
 -0.5050299E-02  0.0000000E+00 -0.5050505E-02  0.2650915E-08  0.0000000E+00  0.1621275E-06
 -0.5050178E-02  0.0000000E+00 -0.5050505E-02  0.2813203E-08  0.0000000E+00  0.1629376E-06
 -0.5050018E-02  0.0000000E+00 -0.5050505E-02  0.2964473E-08  0.0000000E+00  0.1637943E-06
 -0.5049710E-02  0.0000000E+00 -0.5050505E-02  0.3104086E-08  0.0000000E+00  0.1646941E-06
 -0.5049253E-02  0.0000000E+00 -0.5050505E-02  0.3231444E-08  0.0000000E+00  0.1656336E-06
 -0.5048636E-02  0.0000000E+00 -0.5050505E-02  0.3345990E-08  0.0000000E+00  0.1666090E-06
 -0.5047442E-02  0.0000000E+00 -0.5050505E-02  0.3447208E-08  0.0000000E+00  0.1676165E-06
 -0.5045727E-02  0.0000000E+00 -0.5050505E-02  0.3534627E-08  0.0000000E+00  0.1686521E-06
 -0.5043261E-02  0.0000000E+00 -0.5050505E-02  0.3607826E-08  0.0000000E+00  0.1697115E-06
 -0.5038714E-02  0.0000000E+00 -0.5050505E-02  0.3666435E-08  0.0000000E+00  0.1707906E-06
 -0.5032318E-02  0.0000000E+00 -0.5050505E-02  0.3710137E-08  0.0000000E+00  0.1718850E-06
 -0.5022454E-02  0.0000000E+00 -0.5050505E-02  0.3738674E-08  0.0000000E+00  0.1729901E-06
 -0.5012589E-02  0.0000000E+00 -0.5050505E-02  0.3751848E-08  0.0000000E+00  0.1741015E-06
 -0.5002725E-02  0.0000000E+00 -0.5050505E-02  0.3749520E-08  0.0000000E+00  0.1752147E-06
 -0.4992860E-02  0.0000000E+00 -0.5050505E-02  0.3731619E-08  0.0000000E+00  0.1763249E-06
 -0.4976523E-02  0.0000000E+00 -0.5050505E-02  0.3698135E-08  0.0000000E+00  0.1774276E-06
 -0.4956794E-02  0.0000000E+00 -0.5050505E-02  0.3649128E-08  0.0000000E+00  0.1785181E-06
 -0.4937066E-02  0.0000000E+00 -0.5050505E-02  0.3584724E-08  0.0000000E+00  0.1795919E-06